/home/carlespl/.local/lib/python2.7/site-packages/scipy/__init__.py:110: UserWarning: Numpy 1.8.2 or above is recommended for this version of scipy (detected version 1.8.1)
  UserWarning)
Command:    jaguar run jexec.py -jobname qsite_9 qsite_9.in
[running at reduced cpu priority]
Release:    2016-4
Exec:       /opt/schrodinger2016-4/jaguar-v9.4/bin/Linux-x86_64
Host:       bsccls308
JobId:      bsccls308-0-5aa14408
JobDir:     /var/tmp/carlespl/qsite_9
Date:       Thu Mar  8 15:09:12 2018

Contents of /var/tmp/carlespl/qsite_9:
/var/tmp/carlespl/qsite_9/bsccls308-0-5aa14408.recover
/var/tmp/carlespl/qsite_9/bsccls308-0-5aa14408
/var/tmp/carlespl/qsite_9/qsite_9.log
/var/tmp/carlespl/qsite_9/qsite_9.mae
/var/tmp/carlespl/qsite_9/bsccls308-0-5aa14408.mpinodes
/var/tmp/carlespl/qsite_9/qsite_9.recover
/var/tmp/carlespl/qsite_9/qsite_9.in

Executing subprocess:
/opt/schrodinger2016-4/jaguar-v9.4/bin/Linux-x86_64/jexec qsite_9.in -cwd -out /var/tmp/carlespl/qsite_9


** WARNING! Your Jaguar license will expire in 14 days. **

[running at reduced cpu priority]
Job qsite_9 started on bsccls308 at Thu Mar  8 15:09:12 2018
jobid: bsccls308-0-5aa14408 
Jaguar version 9.4, release  15
pre (input checking) done.
impact (MM calculations) done.
  
  ** Warning: When frozen orbitals or hydrogen caps are present, certain
  ** calculated properties may not be valid.  Such properties include ESP
  ** charges for atoms near the QM/MM boundary, and molecular properties
  ** such as homo/lumo energies.  See the QSite manual for more details.
  
WARNING mmjag_scan_adjust: The scan of type 'Distance' involving atoms '71,84,0,0'
affects other scans/constraints.  As the nofail mode is set (nofail=1), only the last
atom in the scan coordinate will be moved.
Molecular Point Group: C1      
Point Group used: C1 (symmetry turned off)
pre (input checking) done.
onee (1-electron integrals) done.
hfig (HF initial guess) done.
probe (project orbitals) done.
grid (grid generation) done.
rwr (Q operators) done.
scf type: DFT=Becke_3_Parameter/HF+Slater+Becke88+VWN+LYP (B3LYP)
  
       i  u  d  i  g
       t  p  i  c  r                                 RMS    maximum
       e  d  i  u  i                       energy  density   DIIS  
       r  t  s  t  d       total energy    change  change    error 
  
etot    1  N  N  1  U   -2691.21445109842           2.4E-03  1.5E-01
etot    2  N  Y  1  U   -2697.90545965722  6.7E+00  1.3E-03  4.0E-02
etot    3  N  Y  1  U   -2699.06577474034  1.2E+00  6.9E-04  3.0E-02
etot    4  N  Y  1  U   -2699.35620211957  2.9E-01  3.4E-04  1.1E-02
etot    5  N  Y  1  U   -2699.40202947960  4.6E-02  1.7E-04  4.1E-03
etot    6  N  Y  1  U   -2699.40988483752  7.9E-03  9.1E-05  1.6E-03
etot    7  N  Y  1  U   -2699.41190809837  2.0E-03  5.1E-05  6.1E-04
etot    8  N  Y  1  U   -2699.41250655015  6.0E-04  3.0E-05  3.1E-04
etot    9  N  Y  1  U   -2699.41271956334  2.1E-04  1.8E-05  2.5E-04
etot   10  N  Y  1  U   -2699.41280481586  8.5E-05  1.2E-05  1.5E-04
etot   11  N  Y  1  U   -2699.41284049727  3.6E-05  7.7E-06  1.1E-04
etot   12  N  Y  1  U   -2699.41285503453  1.5E-05  5.1E-06  7.3E-05
etot   13  N  Y  1  U   -2699.41286190448  6.9E-06  3.5E-06  5.0E-05
etot   14  N  N  1  U   -2699.41286496005  3.1E-06  0.0E+00  0.0E+00
scf (DFT) done.
der1a (1-e 1st deriv.) done.
rwr (1st deriv. Q) done.
der1b (2-e 1st deriv.) done.
geopt (optimize geometry) done.
ch (properties) done.
impact (MM calculations) done.
onee (1-electron integrals) done.
probe (project orbitals) done.
grid (grid generation) done.
rwr (Q operators) done.
scf type: DFT=Becke_3_Parameter/HF+Slater+Becke88+VWN+LYP (B3LYP)
  
       i  u  d  i  g
       t  p  i  c  r                                 RMS    maximum
       e  d  i  u  i                       energy  density   DIIS  
       r  t  s  t  d       total energy    change  change    error 
  
etot    1  N  N  1  U   -2714.03570717722           1.2E-04  3.3E-03
etot    2  N  Y  1  U   -2714.03848388927  2.8E-03  4.2E-05  7.4E-04
etot    3  N  Y  1  U   -2714.03883501230  3.5E-04  1.9E-05  8.3E-04
etot    4  N  Y  1  U   -2714.03891806767  8.3E-05  9.3E-06  1.7E-04
etot    5  N  Y  1  U   -2714.03893709581  1.9E-05  4.9E-06  1.5E-04
etot    6  N  N  1  U   -2714.03894239737  5.3E-06  0.0E+00  0.0E+00
scf (DFT) done.
der1a (1-e 1st deriv.) done.
rwr (1st deriv. Q) done.
der1b (2-e 1st deriv.) done.
  Geometry optimization step  1
  Total energy:     -2714.03894239737 hartrees
  gradient maximum:        2.1844E-02 .  (  6.5000E-04 )
  gradient rms:            4.6451E-03 .  (  5.0000E-04 )
  displacement maximum:    7.2015E-02 .  (  1.8000E-03 )
  displacement rms:        1.8603E-02 .  (  1.2000E-03 )
  
  predicted energy change: -4.1266E-02
  step size:     0.49986
  trust radius:  0.50000
---------------- geometry iteration   1 complete ----------------
geopt (optimize geometry) done.
ch (properties) done.
impact (MM calculations) done.
onee (1-electron integrals) done.
probe (project orbitals) done.
grid (grid generation) done.
rwr (Q operators) done.
  
       i  u  d  i  g
       t  p  i  c  r                                 RMS    maximum
       e  d  i  u  i                       energy  density   DIIS  
       r  t  s  t  d       total energy    change  change    error 
  
etot    1  N  N  1  U   -2714.06908779449           1.3E-04  4.1E-03
etot    2  N  Y  1  U   -2714.07818323430  9.1E-03  6.1E-05  1.6E-03
etot    3  N  Y  1  U   -2714.07969348831  1.5E-03  3.0E-05  7.5E-04
etot    4  N  Y  1  U   -2714.08016357176  4.7E-04  1.6E-05  2.9E-04
etot    5  N  Y  1  U   -2714.08023952517  7.6E-05  8.5E-06  1.7E-04
etot    6  N  Y  1  U   -2714.08025988991  2.0E-05  4.7E-06  7.7E-05
etot    7  N  N  1  U   -2714.08026528119  5.4E-06  0.0E+00  0.0E+00
scf (DFT) done.
der1a (1-e 1st deriv.) done.
rwr (1st deriv. Q) done.
der1b (2-e 1st deriv.) done.
  Geometry optimization step  2
  Total energy:     -2714.08026528119 hartrees
  energy change:          -4.1323E-02 .  (  5.0000E-05 )
  gradient maximum:        7.7060E-03 .  (  6.5000E-04 )
  gradient rms:            1.8674E-03 .  (  5.0000E-04 )
  displacement maximum:    8.0747E-02 .  (  1.8000E-03 )
  displacement rms:        1.8607E-02 .  (  1.2000E-03 )
  
  predicted energy change: -1.6142E-02
  step size:     0.49997
  trust radius:  0.50000
---------------- geometry iteration   2 complete ----------------
geopt (optimize geometry) done.
ch (properties) done.
impact (MM calculations) done.
onee (1-electron integrals) done.
probe (project orbitals) done.
grid (grid generation) done.
rwr (Q operators) done.
  
       i  u  d  i  g
       t  p  i  c  r                                 RMS    maximum
       e  d  i  u  i                       energy  density   DIIS  
       r  t  s  t  d       total energy    change  change    error 
  
etot    1  N  N  1  U   -2714.09123181899           9.5E-05  2.7E-03
etot    2  N  Y  1  U   -2714.09679791314  5.6E-03  4.4E-05  8.1E-04
etot    3  N  Y  1  U   -2714.09779027750  9.9E-04  2.3E-05  4.8E-04
etot    4  N  Y  1  U   -2714.09807100479  2.8E-04  1.3E-05  2.2E-04
etot    5  N  Y  1  U   -2714.09812880313  5.8E-05  7.3E-06  1.4E-04
etot    6  N  Y  1  U   -2714.09814674749  1.8E-05  4.3E-06  8.0E-05
etot    7  N  N  1  U   -2714.09815239332  5.6E-06  0.0E+00  0.0E+00
scf (DFT) done.
der1a (1-e 1st deriv.) done.
rwr (1st deriv. Q) done.
der1b (2-e 1st deriv.) done.
  Geometry optimization step  3
  Total energy:     -2714.09815239332 hartrees
  energy change:          -1.7887E-02 .  (  5.0000E-05 )
  gradient maximum:        4.4183E-03 .  (  6.5000E-04 )
  gradient rms:            9.3332E-04 .  (  5.0000E-04 )
  displacement maximum:    1.0171E-01 .  (  1.8000E-03 )
  displacement rms:        1.8622E-02 .  (  1.2000E-03 )
  
  predicted energy change: -1.0334E-02
  step size:     0.50037
  trust radius:  0.50000
---------------- geometry iteration   3 complete ----------------
geopt (optimize geometry) done.
ch (properties) done.
impact (MM calculations) done.
onee (1-electron integrals) done.
probe (project orbitals) done.
grid (grid generation) done.
rwr (Q operators) done.
  
       i  u  d  i  g
       t  p  i  c  r                                 RMS    maximum
       e  d  i  u  i                       energy  density   DIIS  
       r  t  s  t  d       total energy    change  change    error 
  
etot    1  N  N  1  U   -2714.10178092625           7.6E-05  2.3E-03
etot    2  N  Y  1  U   -2714.10574759334  4.0E-03  3.6E-05  8.0E-04
etot    3  N  Y  1  U   -2714.10649664605  7.5E-04  1.9E-05  3.7E-04
etot    4  N  Y  1  U   -2714.10667313285  1.8E-04  1.1E-05  2.0E-04
etot    5  N  Y  1  U   -2714.10671877627  4.6E-05  6.3E-06  1.2E-04
etot    6  N  Y  1  U   -2714.10673278253  1.4E-05  3.8E-06  7.1E-05
etot    7  N  N  1  U   -2714.10673745289  4.7E-06  0.0E+00  0.0E+00
scf (DFT) done.
der1a (1-e 1st deriv.) done.
rwr (1st deriv. Q) done.
der1b (2-e 1st deriv.) done.
  Geometry optimization step  4
  Total energy:     -2714.10673745289 hartrees
  energy change:          -8.5851E-03 .  (  5.0000E-05 )
  gradient maximum:        1.0379E-02 .  (  6.5000E-04 )
  gradient rms:            9.7669E-04 .  (  5.0000E-04 )
  displacement maximum:    9.2187E-02 .  (  1.8000E-03 )
  displacement rms:        1.8618E-02 .  (  1.2000E-03 )
  
  predicted energy change: -8.6021E-03
  step size:     0.50027
  trust radius:  0.50000
---------------- geometry iteration   4 complete ----------------
geopt (optimize geometry) done.
ch (properties) done.
impact (MM calculations) done.
onee (1-electron integrals) done.
probe (project orbitals) done.
grid (grid generation) done.
rwr (Q operators) done.
  
       i  u  d  i  g
       t  p  i  c  r                                 RMS    maximum
       e  d  i  u  i                       energy  density   DIIS  
       r  t  s  t  d       total energy    change  change    error 
  
etot    1  N  N  1  U   -2714.11045479099           7.1E-05  2.1E-03
etot    2  N  Y  1  U   -2714.11407256241  3.6E-03  3.4E-05  7.6E-04
etot    3  N  Y  1  U   -2714.11477093299  7.0E-04  1.8E-05  4.0E-04
etot    4  N  Y  1  U   -2714.11492253488  1.5E-04  1.0E-05  2.6E-04
etot    5  N  Y  1  U   -2714.11496709454  4.5E-05  6.1E-06  1.4E-04
etot    6  N  Y  1  U   -2714.11498063053  1.4E-05  3.7E-06  8.7E-05
etot    7  N  N  1  U   -2714.11498531507  4.7E-06  0.0E+00  0.0E+00
scf (DFT) done.
der1a (1-e 1st deriv.) done.
rwr (1st deriv. Q) done.
der1b (2-e 1st deriv.) done.
  Geometry optimization step  5
  Total energy:     -2714.11498531507 hartrees
  energy change:          -8.2479E-03 .  (  5.0000E-05 )
  gradient maximum:        2.7492E-03 .  (  6.5000E-04 )
  gradient rms:            5.8592E-04 .  (  5.0000E-04 )
  displacement maximum:    9.6204E-02 .  (  1.8000E-03 )
  displacement rms:        1.8627E-02 .  (  1.2000E-03 )
  
  predicted energy change: -5.8318E-03
  step size:     0.50052
  trust radius:  0.50000
---------------- geometry iteration   5 complete ----------------
geopt (optimize geometry) done.
ch (properties) done.
impact (MM calculations) done.
onee (1-electron integrals) done.
probe (project orbitals) done.
grid (grid generation) done.
rwr (Q operators) done.
  
       i  u  d  i  g
       t  p  i  c  r                                 RMS    maximum
       e  d  i  u  i                       energy  density   DIIS  
       r  t  s  t  d       total energy    change  change    error 
  
etot    1  N  N  1  U   -2714.11798273419           6.3E-05  2.1E-03
etot    2  N  Y  1  U   -2714.12088857171  2.9E-03  3.1E-05  8.0E-04
etot    3  N  Y  1  U   -2714.12145991477  5.7E-04  1.6E-05  4.3E-04
etot    4  N  Y  1  U   -2714.12158452190  1.2E-04  9.3E-06  2.7E-04
etot    5  N  Y  1  U   -2714.12162163767  3.7E-05  5.5E-06  1.5E-04
etot    6  N  Y  1  U   -2714.12163314708  1.2E-05  3.3E-06  9.1E-05
etot    7  N  N  1  U   -2714.12163669473  3.5E-06  0.0E+00  0.0E+00
scf (DFT) done.
der1a (1-e 1st deriv.) done.
rwr (1st deriv. Q) done.
der1b (2-e 1st deriv.) done.
  Geometry optimization step  6
  Total energy:     -2714.12163669473 hartrees
  energy change:          -6.6514E-03 .  (  5.0000E-05 )
  gradient maximum:        2.5329E-03 .  (  6.5000E-04 )
  gradient rms:            4.6455E-04 *  (  5.0000E-04 )
  displacement maximum:    9.8209E-02 .  (  1.8000E-03 )
  displacement rms:        1.8606E-02 .  (  1.2000E-03 )
  
  predicted energy change: -5.3490E-03
  step size:     0.49994
  trust radius:  0.50000
---------------- geometry iteration   6 complete ----------------
geopt (optimize geometry) done.
ch (properties) done.
impact (MM calculations) done.
onee (1-electron integrals) done.
probe (project orbitals) done.
grid (grid generation) done.
rwr (Q operators) done.
  
       i  u  d  i  g
       t  p  i  c  r                                 RMS    maximum
       e  d  i  u  i                       energy  density   DIIS  
       r  t  s  t  d       total energy    change  change    error 
  
etot    1  N  N  1  U   -2714.12368947687           6.5E-05  2.0E-03
etot    2  N  Y  1  U   -2714.12671496211  3.0E-03  3.1E-05  7.9E-04
etot    3  N  Y  1  U   -2714.12730804796  5.9E-04  1.7E-05  3.8E-04
etot    4  N  Y  1  U   -2714.12743661718  1.3E-04  9.7E-06  2.2E-04
etot    5  N  Y  1  U   -2714.12747593019  3.9E-05  5.8E-06  1.3E-04
etot    6  N  Y  1  U   -2714.12748796793  1.2E-05  3.5E-06  7.7E-05
etot    7  N  N  1  U   -2714.12749167500  3.7E-06  0.0E+00  0.0E+00
scf (DFT) done.
der1a (1-e 1st deriv.) done.
rwr (1st deriv. Q) done.
der1b (2-e 1st deriv.) done.
  Geometry optimization step  7
  Total energy:     -2714.12749167500 hartrees
  energy change:          -5.8550E-03 .  (  5.0000E-05 )
  gradient maximum:        5.0953E-03 .  (  6.5000E-04 )
  gradient rms:            4.8481E-04 *  (  5.0000E-04 )
  displacement maximum:    9.1233E-02 .  (  1.8000E-03 )
  displacement rms:        1.8606E-02 .  (  1.2000E-03 )
  
  predicted energy change: -5.1295E-03
  step size:     0.49995
  trust radius:  0.50000
---------------- geometry iteration   7 complete ----------------
geopt (optimize geometry) done.
ch (properties) done.
impact (MM calculations) done.
onee (1-electron integrals) done.
probe (project orbitals) done.
grid (grid generation) done.
rwr (Q operators) done.
  
       i  u  d  i  g
       t  p  i  c  r                                 RMS    maximum
       e  d  i  u  i                       energy  density   DIIS  
       r  t  s  t  d       total energy    change  change    error 
  
etot    1  N  N  1  U   -2714.12978852182           6.3E-05  2.0E-03
etot    2  N  Y  1  U   -2714.13264694406  2.9E-03  3.1E-05  7.3E-04
etot    3  N  Y  1  U   -2714.13320698394  5.6E-04  1.6E-05  3.2E-04
etot    4  N  Y  1  U   -2714.13333058623  1.2E-04  9.5E-06  2.1E-04
etot    5  N  Y  1  U   -2714.13336733201  3.7E-05  5.7E-06  1.0E-04
etot    6  N  Y  1  U   -2714.13337872065  1.1E-05  3.4E-06  6.2E-05
etot    7  N  N  1  U   -2714.13338262807  3.9E-06  0.0E+00  0.0E+00
scf (DFT) done.
der1a (1-e 1st deriv.) done.
rwr (1st deriv. Q) done.
der1b (2-e 1st deriv.) done.
  Geometry optimization step  8
  Total energy:     -2714.13338262807 hartrees
  energy change:          -5.8910E-03 .  (  5.0000E-05 )
  gradient maximum:        3.7271E-03 .  (  6.5000E-04 )
  gradient rms:            4.6005E-04 *  (  5.0000E-04 )
  displacement maximum:    7.4140E-02 .  (  1.8000E-03 )
  displacement rms:        1.8607E-02 .  (  1.2000E-03 )
  
  predicted energy change: -4.4990E-03
  step size:     0.49997
  trust radius:  0.50000
---------------- geometry iteration   8 complete ----------------
geopt (optimize geometry) done.
ch (properties) done.
impact (MM calculations) done.
onee (1-electron integrals) done.
probe (project orbitals) done.
grid (grid generation) done.
rwr (Q operators) done.
  
       i  u  d  i  g
       t  p  i  c  r                                 RMS    maximum
       e  d  i  u  i                       energy  density   DIIS  
       r  t  s  t  d       total energy    change  change    error 
  
etot    1  N  N  1  U   -2714.13635555327           5.6E-05  1.7E-03
etot    2  N  Y  1  U   -2714.13865927140  2.3E-03  2.7E-05  5.9E-04
etot    3  N  Y  1  U   -2714.13910679295  4.5E-04  1.4E-05  2.9E-04
etot    4  N  Y  1  U   -2714.13920559994  9.9E-05  8.3E-06  1.8E-04
etot    5  N  Y  1  U   -2714.13923491526  2.9E-05  4.9E-06  1.0E-04
etot    6  N  N  1  U   -2714.13924366940  8.8E-06  0.0E+00  0.0E+00
scf (DFT) done.
der1a (1-e 1st deriv.) done.
rwr (1st deriv. Q) done.
der1b (2-e 1st deriv.) done.
  Geometry optimization step  9
  Total energy:     -2714.13924366940 hartrees
  energy change:          -5.8610E-03 .  (  5.0000E-05 )
  gradient maximum:        2.9464E-03 .  (  6.5000E-04 )
  gradient rms:            3.8079E-04 *  (  5.0000E-04 )
  displacement maximum:    8.5635E-02 .  (  1.8000E-03 )
  displacement rms:        1.8607E-02 .  (  1.2000E-03 )
  
  predicted energy change: -3.8820E-03
  step size:     0.49998
  trust radius:  0.50000
---------------- geometry iteration   9 complete ----------------
geopt (optimize geometry) done.
ch (properties) done.
impact (MM calculations) done.
onee (1-electron integrals) done.
probe (project orbitals) done.
grid (grid generation) done.
rwr (Q operators) done.
  
       i  u  d  i  g
       t  p  i  c  r                                 RMS    maximum
       e  d  i  u  i                       energy  density   DIIS  
       r  t  s  t  d       total energy    change  change    error 
  
etot    1  N  N  1  U   -2714.14641051168           4.6E-05  1.6E-03
etot    2  N  Y  1  U   -2714.14806612665  1.7E-03  2.3E-05  5.2E-04
etot    3  N  Y  1  U   -2714.14839343161  3.3E-04  1.2E-05  2.6E-04
etot    4  N  Y  1  U   -2714.14846443903  7.1E-05  7.1E-06  1.4E-04
etot    5  N  Y  1  U   -2714.14848582872  2.1E-05  4.2E-06  7.7E-05
etot    6  N  N  1  U   -2714.14849211422  6.3E-06  0.0E+00  0.0E+00
scf (DFT) done.
der1a (1-e 1st deriv.) done.
rwr (1st deriv. Q) done.
der1b (2-e 1st deriv.) done.
  Geometry optimization step 10
  Total energy:     -2714.14849211422 hartrees
  energy change:          -9.2484E-03 .  (  5.0000E-05 )
  gradient maximum:        4.0531E-03 .  (  6.5000E-04 )
  gradient rms:            4.1115E-04 *  (  5.0000E-04 )
  displacement maximum:    9.7468E-02 .  (  1.8000E-03 )
  displacement rms:        1.8608E-02 .  (  1.2000E-03 )
  
  predicted energy change: -3.6782E-03
  step size:     0.49999
  trust radius:  0.50000
---------------- geometry iteration  10 complete ----------------
geopt (optimize geometry) done.
ch (properties) done.
impact (MM calculations) done.
onee (1-electron integrals) done.
probe (project orbitals) done.
grid (grid generation) done.
rwr (Q operators) done.
  
       i  u  d  i  g
       t  p  i  c  r                                 RMS    maximum
       e  d  i  u  i                       energy  density   DIIS  
       r  t  s  t  d       total energy    change  change    error 
  
etot    1  N  N  1  U   -2714.18705201685           4.8E-05  1.5E-03
etot    2  N  Y  1  U   -2714.18845624075  1.4E-03  2.1E-05  4.9E-04
etot    3  N  Y  1  U   -2714.18871443188  2.6E-04  1.1E-05  2.3E-04
etot    4  N  Y  1  U   -2714.18877840239  6.4E-05  6.3E-06  1.6E-04
etot    5  N  Y  1  U   -2714.18879401472  1.6E-05  3.6E-06  8.2E-05
etot    6  N  N  1  U   -2714.18879850650  4.5E-06  0.0E+00  0.0E+00
scf (DFT) done.
der1a (1-e 1st deriv.) done.
rwr (1st deriv. Q) done.
der1b (2-e 1st deriv.) done.
  Geometry optimization step 11
  Total energy:     -2714.18879850650 hartrees
  energy change:          -4.0306E-02 .  (  5.0000E-05 )
  gradient maximum:        1.0523E-02 .  (  6.5000E-04 )
  gradient rms:            8.1768E-04 .  (  5.0000E-04 )
  displacement maximum:    1.5890E-01 .  (  1.8000E-03 )
  displacement rms:        1.8641E-02 .  (  1.2000E-03 )
  
  predicted energy change: -4.6046E-03
  step size:     0.50089
  trust radius:  0.50000
---------------- geometry iteration  11 complete ----------------
geopt (optimize geometry) done.
ch (properties) done.
impact (MM calculations) done.
onee (1-electron integrals) done.
probe (project orbitals) done.
grid (grid generation) done.
rwr (Q operators) done.
  
       i  u  d  i  g
       t  p  i  c  r                                 RMS    maximum
       e  d  i  u  i                       energy  density   DIIS  
       r  t  s  t  d       total energy    change  change    error 
  
etot    1  N  N  1  U   -2714.19108581585           3.4E-05  1.3E-03
etot    2  N  Y  1  U   -2714.19211113842  1.0E-03  1.7E-05  4.4E-04
etot    3  N  Y  1  U   -2714.19230618059  2.0E-04  8.8E-06  2.5E-04
etot    4  N  Y  1  U   -2714.19234785950  4.2E-05  4.9E-06  1.4E-04
etot    5  N  Y  1  U   -2714.19235817569  1.0E-05  2.7E-06  8.0E-05
etot    6  N  N  1  U   -2714.19236072798  2.6E-06  0.0E+00  0.0E+00
scf (DFT) done.
der1a (1-e 1st deriv.) done.
rwr (1st deriv. Q) done.
der1b (2-e 1st deriv.) done.
  Geometry optimization step 12
  Total energy:     -2714.19236072798 hartrees
  energy change:          -3.5622E-03 .  (  5.0000E-05 )
  gradient maximum:        1.3829E-02 .  (  6.5000E-04 )
  gradient rms:            1.0898E-03 .  (  5.0000E-04 )
  displacement maximum:    1.5865E-01 .  (  1.8000E-03 )
  displacement rms:        1.8607E-02 .  (  1.2000E-03 )
  
  predicted energy change: -5.0113E-03
  step size:     0.49997
  trust radius:  0.50000
---------------- geometry iteration  12 complete ----------------
geopt (optimize geometry) done.
ch (properties) done.
impact (MM calculations) done.
onee (1-electron integrals) done.
probe (project orbitals) done.
grid (grid generation) done.
rwr (Q operators) done.
  
       i  u  d  i  g
       t  p  i  c  r                                 RMS    maximum
       e  d  i  u  i                       energy  density   DIIS  
       r  t  s  t  d       total energy    change  change    error 
  
etot    1  N  N  1  U   -2714.19669037338           3.5E-05  1.2E-03
etot    2  N  Y  1  U   -2714.19765304448  9.6E-04  1.6E-05  4.3E-04
etot    3  N  Y  1  U   -2714.19783229221  1.8E-04  8.7E-06  2.1E-04
etot    4  N  Y  1  U   -2714.19787085924  3.9E-05  4.9E-06  8.2E-05
etot    5  N  N  1  U   -2714.19788071952  9.9E-06  0.0E+00  0.0E+00
scf (DFT) done.
der1a (1-e 1st deriv.) done.
rwr (1st deriv. Q) done.
der1b (2-e 1st deriv.) done.
  Geometry optimization step 13
  Total energy:     -2714.19788071952 hartrees
  energy change:          -5.5200E-03 .  (  5.0000E-05 )
  gradient maximum:        7.7212E-03 .  (  6.5000E-04 )
  gradient rms:            7.9711E-04 .  (  5.0000E-04 )
  displacement maximum:    1.8336E-01 .  (  1.8000E-03 )
  displacement rms:        1.8619E-02 .  (  1.2000E-03 )
  
  predicted energy change: -5.8471E-03
  step size:     0.50029
  trust radius:  0.50000
---------------- geometry iteration  13 complete ----------------
geopt (optimize geometry) done.
ch (properties) done.
impact (MM calculations) done.
onee (1-electron integrals) done.
probe (project orbitals) done.
grid (grid generation) done.
rwr (Q operators) done.
  
       i  u  d  i  g
       t  p  i  c  r                                 RMS    maximum
       e  d  i  u  i                       energy  density   DIIS  
       r  t  s  t  d       total energy    change  change    error 
  
etot    1  N  N  1  U   -2714.24705470319           3.6E-05  1.2E-03
etot    2  N  Y  1  U   -2714.24795552759  9.0E-04  1.7E-05  4.5E-04
etot    3  N  Y  1  U   -2714.24811954302  1.6E-04  9.0E-06  1.8E-04
etot    4  N  Y  1  U   -2714.24815688745  3.7E-05  5.1E-06  9.7E-05
etot    5  N  Y  1  U   -2714.24816681896  9.9E-06  3.0E-06  5.3E-05
etot    6  N  N  1  U   -2714.24816971769  2.9E-06  0.0E+00  0.0E+00
scf (DFT) done.
der1a (1-e 1st deriv.) done.
rwr (1st deriv. Q) done.
der1b (2-e 1st deriv.) done.
  Geometry optimization step 14
  Total energy:     -2714.24816971769 hartrees
  energy change:          -5.0289E-02 .  (  5.0000E-05 )
  gradient maximum:        4.8126E-03 .  (  6.5000E-04 )
  gradient rms:            6.8794E-04 .  (  5.0000E-04 )
  displacement maximum:    1.8087E-01 .  (  1.8000E-03 )
  displacement rms:        1.8617E-02 .  (  1.2000E-03 )
  
  predicted energy change: -4.6346E-03
  step size:     0.50025
  trust radius:  0.50000
---------------- geometry iteration  14 complete ----------------
geopt (optimize geometry) done.
ch (properties) done.
impact (MM calculations) done.
onee (1-electron integrals) done.
probe (project orbitals) done.
grid (grid generation) done.
rwr (Q operators) done.
  
       i  u  d  i  g
       t  p  i  c  r                                 RMS    maximum
       e  d  i  u  i                       energy  density   DIIS  
       r  t  s  t  d       total energy    change  change    error 
  
etot    1  N  N  1  U   -2714.25091396049           3.1E-05  1.2E-03
etot    2  N  Y  1  U   -2714.25168770304  7.7E-04  1.5E-05  3.5E-04
etot    3  N  Y  1  U   -2714.25182736533  1.4E-04  7.7E-06  1.6E-04
etot    4  N  Y  1  U   -2714.25185819698  3.1E-05  4.4E-06  7.3E-05
etot    5  N  N  1  U   -2714.25186587799  7.7E-06  0.0E+00  0.0E+00
scf (DFT) done.
der1a (1-e 1st deriv.) done.
rwr (1st deriv. Q) done.
der1b (2-e 1st deriv.) done.
  Geometry optimization step 15
  Total energy:     -2714.25186587799 hartrees
  energy change:          -3.6962E-03 .  (  5.0000E-05 )
  gradient maximum:        4.8090E-03 .  (  6.5000E-04 )
  gradient rms:            4.8964E-04 *  (  5.0000E-04 )
  displacement maximum:    1.7207E-01 .  (  1.8000E-03 )
  displacement rms:        1.8622E-02 .  (  1.2000E-03 )
  
  predicted energy change: -3.6662E-03
  step size:     0.50038
  trust radius:  0.50000
---------------- geometry iteration  15 complete ----------------
geopt (optimize geometry) done.
ch (properties) done.
impact (MM calculations) done.
onee (1-electron integrals) done.
probe (project orbitals) done.
grid (grid generation) done.
rwr (Q operators) done.
  
       i  u  d  i  g
       t  p  i  c  r                                 RMS    maximum
       e  d  i  u  i                       energy  density   DIIS  
       r  t  s  t  d       total energy    change  change    error 
  
etot    1  N  N  1  U   -2714.25470753033           2.7E-05  1.2E-03
etot    2  N  Y  1  U   -2714.25537012344  6.6E-04  1.4E-05  4.1E-04
etot    3  N  Y  1  U   -2714.25549480004  1.2E-04  7.3E-06  1.6E-04
etot    4  N  Y  1  U   -2714.25552057390  2.6E-05  4.2E-06  8.3E-05
etot    5  N  N  1  U   -2714.25552742001  6.8E-06  0.0E+00  0.0E+00
scf (DFT) done.
der1a (1-e 1st deriv.) done.
rwr (1st deriv. Q) done.
der1b (2-e 1st deriv.) done.
  Geometry optimization step 16
  Total energy:     -2714.25552742001 hartrees
  energy change:          -3.6615E-03 .  (  5.0000E-05 )
  gradient maximum:        3.4676E-03 .  (  6.5000E-04 )
  gradient rms:            4.3724E-04 *  (  5.0000E-04 )
  displacement maximum:    1.0003E-01 .  (  1.8000E-03 )
  displacement rms:        1.8633E-02 .  (  1.2000E-03 )
  
  predicted energy change: -2.9245E-03
  step size:     0.50067
  trust radius:  0.50000
---------------- geometry iteration  16 complete ----------------
geopt (optimize geometry) done.
ch (properties) done.
impact (MM calculations) done.
onee (1-electron integrals) done.
probe (project orbitals) done.
grid (grid generation) done.
rwr (Q operators) done.
  
       i  u  d  i  g
       t  p  i  c  r                                 RMS    maximum
       e  d  i  u  i                       energy  density   DIIS  
       r  t  s  t  d       total energy    change  change    error 
  
etot    1  N  N  1  U   -2714.25725875888           2.8E-05  1.2E-03
etot    2  N  Y  1  U   -2714.25792886974  6.7E-04  1.4E-05  4.5E-04
etot    3  N  Y  1  U   -2714.25805426178  1.3E-04  7.5E-06  1.5E-04
etot    4  N  Y  1  U   -2714.25807990443  2.6E-05  4.3E-06  6.7E-05
etot    5  N  N  1  U   -2714.25808685068  6.9E-06  0.0E+00  0.0E+00
scf (DFT) done.
der1a (1-e 1st deriv.) done.
rwr (1st deriv. Q) done.
der1b (2-e 1st deriv.) done.
  Geometry optimization step 17
  Total energy:     -2714.25808685068 hartrees
  energy change:          -2.5594E-03 .  (  5.0000E-05 )
  gradient maximum:        4.3802E-03 .  (  6.5000E-04 )
  gradient rms:            4.3015E-04 *  (  5.0000E-04 )
  displacement maximum:    1.2887E-01 .  (  1.8000E-03 )
  displacement rms:        1.8632E-02 .  (  1.2000E-03 )
  
  predicted energy change: -2.7638E-03
  step size:     0.50065
  trust radius:  0.50000
---------------- geometry iteration  17 complete ----------------
geopt (optimize geometry) done.
ch (properties) done.
impact (MM calculations) done.
onee (1-electron integrals) done.
probe (project orbitals) done.
grid (grid generation) done.
rwr (Q operators) done.
  
       i  u  d  i  g
       t  p  i  c  r                                 RMS    maximum
       e  d  i  u  i                       energy  density   DIIS  
       r  t  s  t  d       total energy    change  change    error 
  
etot    1  N  N  1  U   -2714.26143755125           3.0E-05  1.1E-03
etot    2  N  Y  1  U   -2714.26221766864  7.8E-04  1.5E-05  3.9E-04
etot    3  N  Y  1  U   -2714.26235904449  1.4E-04  7.9E-06  1.3E-04
etot    4  N  Y  1  U   -2714.26238775477  2.9E-05  4.4E-06  8.5E-05
etot    5  N  N  1  U   -2714.26239528669  7.5E-06  0.0E+00  0.0E+00
scf (DFT) done.
der1a (1-e 1st deriv.) done.
rwr (1st deriv. Q) done.
der1b (2-e 1st deriv.) done.
  Geometry optimization step 18
  Total energy:     -2714.26239528669 hartrees
  energy change:          -4.3084E-03 .  (  5.0000E-05 )
  gradient maximum:        4.8092E-03 .  (  6.5000E-04 )
  gradient rms:            4.9155E-04 *  (  5.0000E-04 )
  displacement maximum:    1.0113E-01 .  (  1.8000E-03 )
  displacement rms:        1.8625E-02 .  (  1.2000E-03 )
  
  predicted energy change: -2.5070E-03
  step size:     0.50046
  trust radius:  0.50000
---------------- geometry iteration  18 complete ----------------
geopt (optimize geometry) done.
ch (properties) done.
impact (MM calculations) done.
onee (1-electron integrals) done.
probe (project orbitals) done.
grid (grid generation) done.
rwr (Q operators) done.
  
       i  u  d  i  g
       t  p  i  c  r                                 RMS    maximum
       e  d  i  u  i                       energy  density   DIIS  
       r  t  s  t  d       total energy    change  change    error 
  
etot    1  N  N  1  U   -2714.26453552648           2.9E-05  1.2E-03
etot    2  N  Y  1  U   -2714.26526088232  7.3E-04  1.4E-05  4.1E-04
etot    3  N  Y  1  U   -2714.26539402123  1.3E-04  7.6E-06  2.0E-04
etot    4  N  Y  1  U   -2714.26542294881  2.9E-05  4.3E-06  7.4E-05
etot    5  N  N  1  U   -2714.26542970423  6.8E-06  0.0E+00  0.0E+00
scf (DFT) done.
der1a (1-e 1st deriv.) done.
rwr (1st deriv. Q) done.
der1b (2-e 1st deriv.) done.
  Geometry optimization step 19
  Total energy:     -2714.26542970423 hartrees
  energy change:          -3.0344E-03 .  (  5.0000E-05 )
  gradient maximum:        3.5694E-03 .  (  6.5000E-04 )
  gradient rms:            3.2659E-04 *  (  5.0000E-04 )
  displacement maximum:    1.0144E-01 .  (  1.8000E-03 )
  displacement rms:        1.8633E-02 .  (  1.2000E-03 )
  
  predicted energy change: -2.2277E-03
  step size:     0.50066
  trust radius:  0.50000
---------------- geometry iteration  19 complete ----------------
geopt (optimize geometry) done.
ch (properties) done.
impact (MM calculations) done.
onee (1-electron integrals) done.
probe (project orbitals) done.
grid (grid generation) done.
rwr (Q operators) done.
  
       i  u  d  i  g
       t  p  i  c  r                                 RMS    maximum
       e  d  i  u  i                       energy  density   DIIS  
       r  t  s  t  d       total energy    change  change    error 
  
etot    1  N  N  1  U   -2714.26664960564           3.3E-05  1.2E-03
etot    2  N  Y  1  U   -2714.26746494483  8.2E-04  1.6E-05  4.2E-04
etot    3  N  Y  1  U   -2714.26761793250  1.5E-04  8.3E-06  1.7E-04
etot    4  N  Y  1  U   -2714.26764931552  3.1E-05  4.7E-06  9.1E-05
etot    5  N  N  1  U   -2714.26765849103  9.2E-06  0.0E+00  0.0E+00
scf (DFT) done.
der1a (1-e 1st deriv.) done.
rwr (1st deriv. Q) done.
der1b (2-e 1st deriv.) done.
  Geometry optimization step 20
  Total energy:     -2714.26765849103 hartrees
  energy change:          -2.2288E-03 .  (  5.0000E-05 )
  gradient maximum:        4.9110E-03 .  (  6.5000E-04 )
  gradient rms:            5.3022E-04 .  (  5.0000E-04 )
  displacement maximum:    9.9590E-02 .  (  1.8000E-03 )
  displacement rms:        1.8624E-02 .  (  1.2000E-03 )
  
  predicted energy change: -2.3410E-03
  step size:     0.50044
  trust radius:  0.50000
---------------- geometry iteration  20 complete ----------------
geopt (optimize geometry) done.
ch (properties) done.
impact (MM calculations) done.
onee (1-electron integrals) done.
probe (project orbitals) done.
grid (grid generation) done.
rwr (Q operators) done.
  
       i  u  d  i  g
       t  p  i  c  r                                 RMS    maximum
       e  d  i  u  i                       energy  density   DIIS  
       r  t  s  t  d       total energy    change  change    error 
  
etot    1  N  N  1  U   -2714.26899981476           2.8E-05  9.3E-04
etot    2  N  Y  1  U   -2714.26971617127  7.2E-04  1.4E-05  3.4E-04
etot    3  N  Y  1  U   -2714.26984812379  1.3E-04  7.5E-06  1.7E-04
etot    4  N  Y  1  U   -2714.26987477552  2.7E-05  4.2E-06  7.8E-05
etot    5  N  N  1  U   -2714.26988172167  6.9E-06  0.0E+00  0.0E+00
scf (DFT) done.
der1a (1-e 1st deriv.) done.
rwr (1st deriv. Q) done.
der1b (2-e 1st deriv.) done.
  Geometry optimization step 21
  Total energy:     -2714.26988172167 hartrees
  energy change:          -2.2232E-03 .  (  5.0000E-05 )
  gradient maximum:        4.7373E-03 .  (  6.5000E-04 )
  gradient rms:            3.8443E-04 *  (  5.0000E-04 )
  displacement maximum:    1.1230E-01 .  (  1.8000E-03 )
  displacement rms:        1.8623E-02 .  (  1.2000E-03 )
  
  predicted energy change: -2.5589E-03
  step size:     0.50040
  trust radius:  0.50000
---------------- geometry iteration  21 complete ----------------
geopt (optimize geometry) done.
ch (properties) done.
impact (MM calculations) done.
onee (1-electron integrals) done.
probe (project orbitals) done.
grid (grid generation) done.
rwr (Q operators) done.
  
       i  u  d  i  g
       t  p  i  c  r                                 RMS    maximum
       e  d  i  u  i                       energy  density   DIIS  
       r  t  s  t  d       total energy    change  change    error 
  
etot    1  N  N  1  U   -2714.26855114467           3.0E-05  8.8E-04
etot    2  N  Y  1  U   -2714.26927209579  7.2E-04  1.4E-05  3.2E-04
etot    3  N  Y  1  U   -2714.26939287492  1.2E-04  7.4E-06  1.7E-04
etot    4  N  Y  1  U   -2714.26941970304  2.7E-05  4.3E-06  1.1E-04
etot    5  N  N  1  U   -2714.26942704819  7.3E-06  0.0E+00  0.0E+00
scf (DFT) done.
der1a (1-e 1st deriv.) done.
rwr (1st deriv. Q) done.
der1b (2-e 1st deriv.) done.
  Geometry optimization step 22
  Total energy:     -2714.26942704819 hartrees
  ** restarting optimization from step   21 **
  energy change:           4.5467E-04 .  (  5.0000E-05 )
  gradient maximum:        4.7373E-03 .  (  6.5000E-04 )
  gradient rms:            3.8443E-04 *  (  5.0000E-04 )
  displacement maximum:    1.0274E-01 .  (  1.8000E-03 )
  displacement rms:        1.8626E-02 .  (  1.2000E-03 )
  
  predicted energy change: -2.0263E-03
  step size:     0.50048
  trust radius:  0.50000
---------------- geometry iteration  22 complete ----------------
geopt (optimize geometry) done.
ch (properties) done.
impact (MM calculations) done.
onee (1-electron integrals) done.
probe (project orbitals) done.
grid (grid generation) done.
rwr (Q operators) done.
  
       i  u  d  i  g
       t  p  i  c  r                                 RMS    maximum
       e  d  i  u  i                       energy  density   DIIS  
       r  t  s  t  d       total energy    change  change    error 
  
etot    1  N  N  1  U   -2714.41557177443           2.1E-05  1.6E-03
etot    2  N  Y  1  U   -2714.41587832808  3.1E-04  9.7E-06  5.3E-04
etot    3  N  Y  1  U   -2714.41593340838  5.5E-05  5.2E-06  1.9E-04
etot    4  N  Y  1  U   -2714.41594805661  1.5E-05  3.0E-06  8.3E-05
etot    5  N  N  1  U   -2714.41595145907  3.4E-06  0.0E+00  0.0E+00
scf (DFT) done.
der1a (1-e 1st deriv.) done.
rwr (1st deriv. Q) done.
der1b (2-e 1st deriv.) done.
  Geometry optimization step 23
  Total energy:     -2714.41595145907 hartrees
  energy change:          -1.4607E-01 .  (  5.0000E-05 )
  gradient maximum:        3.9700E-03 .  (  6.5000E-04 )
  gradient rms:            3.8280E-04 *  (  5.0000E-04 )
  displacement maximum:    1.7813E-01 .  (  1.8000E-03 )
  displacement rms:        1.8615E-02 .  (  1.2000E-03 )
  
  predicted energy change: -2.6716E-03
  step size:     0.50020
  trust radius:  0.50000
---------------- geometry iteration  23 complete ----------------
geopt (optimize geometry) done.
ch (properties) done.
impact (MM calculations) done.
onee (1-electron integrals) done.
probe (project orbitals) done.
grid (grid generation) done.
rwr (Q operators) done.
  
       i  u  d  i  g
       t  p  i  c  r                                 RMS    maximum
       e  d  i  u  i                       energy  density   DIIS  
       r  t  s  t  d       total energy    change  change    error 
  
etot    1  N  N  1  U   -2714.41621247989           2.7E-05  1.2E-03
etot    2  N  Y  1  U   -2714.41684883946  6.4E-04  1.2E-05  6.8E-04
etot    3  N  Y  1  U   -2714.41695438345  1.1E-04  6.4E-06  3.6E-04
etot    4  N  Y  1  U   -2714.41697687889  2.2E-05  3.6E-06  2.3E-04
etot    5  N  N  1  U   -2714.41698306821  6.2E-06  0.0E+00  0.0E+00
scf (DFT) done.
der1a (1-e 1st deriv.) done.
rwr (1st deriv. Q) done.
der1b (2-e 1st deriv.) done.
  Geometry optimization step 24
  Total energy:     -2714.41698306821 hartrees
  energy change:          -1.0316E-03 .  (  5.0000E-05 )
  gradient maximum:        1.2266E-02 .  (  6.5000E-04 )
  gradient rms:            1.1525E-03 .  (  5.0000E-04 )
  displacement maximum:    1.1821E-01 .  (  1.8000E-03 )
  displacement rms:        1.8299E-02 .  (  1.2000E-03 )
  
  predicted energy change: -4.0524E-03
  step size:     0.49170
  trust radius:  0.50000
---------------- geometry iteration  24 complete ----------------
geopt (optimize geometry) done.
ch (properties) done.
impact (MM calculations) done.
onee (1-electron integrals) done.
probe (project orbitals) done.
grid (grid generation) done.
rwr (Q operators) done.
  
       i  u  d  i  g
       t  p  i  c  r                                 RMS    maximum
       e  d  i  u  i                       energy  density   DIIS  
       r  t  s  t  d       total energy    change  change    error 
  
etot    1  N  N  1  U   -2714.42661077023           3.0E-05  1.2E-03
etot    2  N  Y  1  U   -2714.42737636388  7.7E-04  1.4E-05  5.8E-04
etot    3  N  Y  1  U   -2714.42752462624  1.5E-04  7.7E-06  3.2E-04
etot    4  N  Y  1  U   -2714.42755440221  3.0E-05  4.3E-06  1.9E-04
etot    5  N  N  1  U   -2714.42756270608  8.3E-06  0.0E+00  0.0E+00
scf (DFT) done.
der1a (1-e 1st deriv.) done.
rwr (1st deriv. Q) done.
der1b (2-e 1st deriv.) done.
  Geometry optimization step 25
  Total energy:     -2714.42756270608 hartrees
  energy change:          -1.0580E-02 .  (  5.0000E-05 )
  gradient maximum:        2.5111E-03 .  (  6.5000E-04 )
  gradient rms:            2.6107E-04 *  (  5.0000E-04 )
  displacement maximum:    1.1170E-01 .  (  1.8000E-03 )
  displacement rms:        1.8626E-02 .  (  1.2000E-03 )
  
  predicted energy change: -1.9350E-03
  step size:     0.50047
  trust radius:  0.50000
---------------- geometry iteration  25 complete ----------------
geopt (optimize geometry) done.
ch (properties) done.
impact (MM calculations) done.
onee (1-electron integrals) done.
probe (project orbitals) done.
grid (grid generation) done.
rwr (Q operators) done.
  
       i  u  d  i  g
       t  p  i  c  r                                 RMS    maximum
       e  d  i  u  i                       energy  density   DIIS  
       r  t  s  t  d       total energy    change  change    error 
  
etot    1  N  N  1  U   -2714.45064024422           2.7E-05  1.3E-03
etot    2  N  Y  1  U   -2714.45129087085  6.5E-04  1.4E-05  5.1E-04
etot    3  N  Y  1  U   -2714.45142159985  1.3E-04  7.5E-06  1.7E-04
etot    4  N  Y  1  U   -2714.45144789774  2.6E-05  4.2E-06  9.0E-05
etot    5  N  N  1  U   -2714.45145568532  7.8E-06  0.0E+00  0.0E+00
scf (DFT) done.
der1a (1-e 1st deriv.) done.
rwr (1st deriv. Q) done.
der1b (2-e 1st deriv.) done.
  Geometry optimization step 26
  Total energy:     -2714.45145568532 hartrees
  energy change:          -2.3893E-02 .  (  5.0000E-05 )
  gradient maximum:        6.9309E-03 .  (  6.5000E-04 )
  gradient rms:            6.1262E-04 .  (  5.0000E-04 )
  displacement maximum:    1.0671E-01 .  (  1.8000E-03 )
  displacement rms:        1.8610E-02 .  (  1.2000E-03 )
  
  predicted energy change: -2.1539E-03
  step size:     0.50004
  trust radius:  0.50000
---------------- geometry iteration  26 complete ----------------
geopt (optimize geometry) done.
ch (properties) done.
impact (MM calculations) done.
onee (1-electron integrals) done.
probe (project orbitals) done.
grid (grid generation) done.
rwr (Q operators) done.
  
       i  u  d  i  g
       t  p  i  c  r                                 RMS    maximum
       e  d  i  u  i                       energy  density   DIIS  
       r  t  s  t  d       total energy    change  change    error 
  
etot    1  N  N  1  U   -2714.45426532627           2.9E-05  1.5E-03
etot    2  N  Y  1  U   -2714.45502965601  7.6E-04  1.4E-05  5.7E-04
etot    3  N  Y  1  U   -2714.45517611329  1.5E-04  7.7E-06  2.5E-04
etot    4  N  Y  1  U   -2714.45520563028  3.0E-05  4.3E-06  1.7E-04
etot    5  N  N  1  U   -2714.45521382098  8.2E-06  0.0E+00  0.0E+00
scf (DFT) done.
der1a (1-e 1st deriv.) done.
rwr (1st deriv. Q) done.
der1b (2-e 1st deriv.) done.
  Geometry optimization step 27
  Total energy:     -2714.45521382098 hartrees
  energy change:          -3.7581E-03 .  (  5.0000E-05 )
  gradient maximum:        1.1812E-03 .  (  6.5000E-04 )
  gradient rms:            1.6224E-04 *  (  5.0000E-04 )
  displacement maximum:    1.1220E-01 .  (  1.8000E-03 )
  displacement rms:        1.8640E-02 .  (  1.2000E-03 )
  
  predicted energy change: -1.4501E-03
  step size:     0.50084
  trust radius:  0.50000
---------------- geometry iteration  27 complete ----------------
geopt (optimize geometry) done.
ch (properties) done.
impact (MM calculations) done.
onee (1-electron integrals) done.
probe (project orbitals) done.
grid (grid generation) done.
rwr (Q operators) done.
  
       i  u  d  i  g
       t  p  i  c  r                                 RMS    maximum
       e  d  i  u  i                       energy  density   DIIS  
       r  t  s  t  d       total energy    change  change    error 
  
etot    1  N  N  1  U   -2714.45557297257           3.3E-05  1.7E-03
etot    2  N  Y  1  U   -2714.45648275527  9.1E-04  1.5E-05  1.0E-03
etot    3  N  Y  1  U   -2714.45664749088  1.6E-04  8.3E-06  5.3E-04
etot    4  N  Y  1  U   -2714.45668293235  3.5E-05  4.7E-06  3.5E-04
etot    5  N  Y  1  U   -2714.45669401291  1.1E-05  2.7E-06  1.8E-04
etot    6  N  N  1  U   -2714.45669716021  3.1E-06  0.0E+00  0.0E+00
scf (DFT) done.
der1a (1-e 1st deriv.) done.
rwr (1st deriv. Q) done.
der1b (2-e 1st deriv.) done.
  Geometry optimization step 28
  Total energy:     -2714.45669716021 hartrees
  energy change:          -1.4833E-03 .  (  5.0000E-05 )
  gradient maximum:        3.7526E-03 .  (  6.5000E-04 )
  gradient rms:            4.0402E-04 *  (  5.0000E-04 )
  displacement maximum:    9.8499E-02 .  (  1.8000E-03 )
  displacement rms:        1.8620E-02 .  (  1.2000E-03 )
  
  predicted energy change: -1.6522E-03
  step size:     0.50031
  trust radius:  0.50000
---------------- geometry iteration  28 complete ----------------
geopt (optimize geometry) done.
ch (properties) done.
impact (MM calculations) done.
onee (1-electron integrals) done.
probe (project orbitals) done.
grid (grid generation) done.
rwr (Q operators) done.
  
       i  u  d  i  g
       t  p  i  c  r                                 RMS    maximum
       e  d  i  u  i                       energy  density   DIIS  
       r  t  s  t  d       total energy    change  change    error 
  
etot    1  N  N  1  U   -2714.45718175882           3.6E-05  1.8E-03
etot    2  N  Y  1  U   -2714.45827174903  1.1E-03  1.6E-05  9.3E-04
etot    3  N  Y  1  U   -2714.45846595121  1.9E-04  8.9E-06  5.3E-04
etot    4  N  Y  1  U   -2714.45850656191  4.1E-05  5.0E-06  3.0E-04
etot    5  N  Y  1  U   -2714.45851839810  1.2E-05  2.8E-06  1.7E-04
etot    6  N  N  1  U   -2714.45852164817  3.3E-06  0.0E+00  0.0E+00
scf (DFT) done.
der1a (1-e 1st deriv.) done.
rwr (1st deriv. Q) done.
der1b (2-e 1st deriv.) done.
  Geometry optimization step 29
  Total energy:     -2714.45852164817 hartrees
  energy change:          -1.8245E-03 .  (  5.0000E-05 )
  gradient maximum:        2.7453E-03 .  (  6.5000E-04 )
  gradient rms:            2.5307E-04 *  (  5.0000E-04 )
  displacement maximum:    1.2705E-01 .  (  1.8000E-03 )
  displacement rms:        1.8633E-02 .  (  1.2000E-03 )
  
  predicted energy change: -1.7503E-03
  step size:     0.50067
  trust radius:  0.50000
---------------- geometry iteration  29 complete ----------------
geopt (optimize geometry) done.
ch (properties) done.
impact (MM calculations) done.
onee (1-electron integrals) done.
probe (project orbitals) done.
grid (grid generation) done.
rwr (Q operators) done.
  
       i  u  d  i  g
       t  p  i  c  r                                 RMS    maximum
       e  d  i  u  i                       energy  density   DIIS  
       r  t  s  t  d       total energy    change  change    error 
  
etot    1  N  N  1  U   -2714.45810403506           3.3E-05  2.1E-03
etot    2  N  Y  1  U   -2714.45896472512  8.6E-04  1.5E-05  7.8E-04
etot    3  N  Y  1  U   -2714.45912162365  1.6E-04  8.4E-06  2.5E-04
etot    4  N  Y  1  U   -2714.45915585362  3.4E-05  4.8E-06  1.2E-04
etot    5  N  N  1  U   -2714.45916576654  9.9E-06  0.0E+00  0.0E+00
scf (DFT) done.
der1a (1-e 1st deriv.) done.
rwr (1st deriv. Q) done.
der1b (2-e 1st deriv.) done.
  Geometry optimization step 30
  Total energy:     -2714.45916576654 hartrees
  energy change:          -6.4412E-04 .  (  5.0000E-05 )
  gradient maximum:        4.7615E-03 .  (  6.5000E-04 )
  gradient rms:            5.4553E-04 .  (  5.0000E-04 )
  displacement maximum:    1.0834E-01 .  (  1.8000E-03 )
  displacement rms:        1.8608E-02 .  (  1.2000E-03 )
  
  predicted energy change: -2.0582E-03
  step size:     0.49999
  trust radius:  0.50000
---------------- geometry iteration  30 complete ----------------
geopt (optimize geometry) done.
ch (properties) done.
impact (MM calculations) done.
onee (1-electron integrals) done.
probe (project orbitals) done.
grid (grid generation) done.
rwr (Q operators) done.
  
       i  u  d  i  g
       t  p  i  c  r                                 RMS    maximum
       e  d  i  u  i                       energy  density   DIIS  
       r  t  s  t  d       total energy    change  change    error 
  
etot    1  N  N  1  U   -2714.46027510279           3.3E-05  2.3E-03
etot    2  N  Y  1  U   -2714.46123036226  9.6E-04  1.7E-05  9.2E-04
etot    3  N  Y  1  U   -2714.46143136936  2.0E-04  9.2E-06  3.9E-04
etot    4  N  Y  1  U   -2714.46147348834  4.2E-05  5.2E-06  2.3E-04
etot    5  N  Y  1  U   -2714.46148575536  1.2E-05  3.0E-06  1.2E-04
etot    6  N  N  1  U   -2714.46148928030  3.5E-06  0.0E+00  0.0E+00
scf (DFT) done.
der1a (1-e 1st deriv.) done.
rwr (1st deriv. Q) done.
der1b (2-e 1st deriv.) done.
  Geometry optimization step 31
  Total energy:     -2714.46148928030 hartrees
  energy change:          -2.3235E-03 .  (  5.0000E-05 )
  gradient maximum:        2.5371E-03 .  (  6.5000E-04 )
  gradient rms:            3.0356E-04 *  (  5.0000E-04 )
  displacement maximum:    1.1938E-01 .  (  1.8000E-03 )
  displacement rms:        1.8624E-02 .  (  1.2000E-03 )
  
  predicted energy change: -2.1541E-03
  step size:     0.50043
  trust radius:  0.50000
---------------- geometry iteration  31 complete ----------------
geopt (optimize geometry) done.
ch (properties) done.
impact (MM calculations) done.
onee (1-electron integrals) done.
probe (project orbitals) done.
grid (grid generation) done.
rwr (Q operators) done.
  
       i  u  d  i  g
       t  p  i  c  r                                 RMS    maximum
       e  d  i  u  i                       energy  density   DIIS  
       r  t  s  t  d       total energy    change  change    error 
  
etot    1  N  N  1  U   -2714.46003297699           3.1E-05  1.7E-03
etot    2  N  Y  1  U   -2714.46079485883  7.6E-04  1.4E-05  8.0E-04
etot    3  N  Y  1  U   -2714.46093321929  1.4E-04  7.8E-06  4.4E-04
etot    4  N  Y  1  U   -2714.46096349850  3.0E-05  4.4E-06  2.6E-04
etot    5  N  N  1  U   -2714.46097241682  8.9E-06  0.0E+00  0.0E+00
scf (DFT) done.
der1a (1-e 1st deriv.) done.
rwr (1st deriv. Q) done.
der1b (2-e 1st deriv.) done.
  Geometry optimization step 32
  Total energy:     -2714.46097241682 hartrees
  ** restarting optimization from step   31 **
  energy change:           5.1686E-04 .  (  5.0000E-05 )
  gradient maximum:        2.5371E-03 .  (  6.5000E-04 )
  gradient rms:            3.0356E-04 *  (  5.0000E-04 )
  displacement maximum:    1.2481E-01 .  (  1.8000E-03 )
  displacement rms:        1.8622E-02 .  (  1.2000E-03 )
  
  predicted energy change: -1.6000E-03
  step size:     0.50036
  trust radius:  0.50000
---------------- geometry iteration  32 complete ----------------
geopt (optimize geometry) done.
ch (properties) done.
impact (MM calculations) done.
onee (1-electron integrals) done.
probe (project orbitals) done.
grid (grid generation) done.
rwr (Q operators) done.
  
       i  u  d  i  g
       t  p  i  c  r                                 RMS    maximum
       e  d  i  u  i                       energy  density   DIIS  
       r  t  s  t  d       total energy    change  change    error 
  
etot    1  N  N  1  U   -2714.46318839294           1.4E-05  9.1E-04
etot    2  N  Y  1  U   -2714.46332601154  1.4E-04  6.9E-06  3.2E-04
etot    3  N  Y  1  U   -2714.46335414454  2.8E-05  3.8E-06  1.6E-04
etot    4  N  N  1  U   -2714.46336124538  7.1E-06  0.0E+00  0.0E+00
scf (DFT) done.
der1a (1-e 1st deriv.) done.
rwr (1st deriv. Q) done.
der1b (2-e 1st deriv.) done.
  Geometry optimization step 33
  Total energy:     -2714.46336124538 hartrees
  energy change:          -1.8720E-03 .  (  5.0000E-05 )
  gradient maximum:        2.9519E-03 .  (  6.5000E-04 )
  gradient rms:            3.1227E-04 *  (  5.0000E-04 )
  displacement maximum:    1.3024E-01 .  (  1.8000E-03 )
  displacement rms:        1.8618E-02 .  (  1.2000E-03 )
  
  predicted energy change: -1.7643E-03
  step size:     0.50026
  trust radius:  0.50000
---------------- geometry iteration  33 complete ----------------
geopt (optimize geometry) done.
ch (properties) done.
impact (MM calculations) done.
onee (1-electron integrals) done.
probe (project orbitals) done.
grid (grid generation) done.
rwr (Q operators) done.
  
       i  u  d  i  g
       t  p  i  c  r                                 RMS    maximum
       e  d  i  u  i                       energy  density   DIIS  
       r  t  s  t  d       total energy    change  change    error 
  
etot    1  N  N  1  U   -2714.46256141983           3.5E-05  2.4E-03
etot    2  N  Y  1  U   -2714.46356328057  1.0E-03  1.6E-05  9.0E-04
etot    3  N  Y  1  U   -2714.46374719256  1.8E-04  8.8E-06  5.0E-04
etot    4  N  Y  1  U   -2714.46378739494  4.0E-05  5.0E-06  2.8E-04
etot    5  N  Y  1  U   -2714.46379916092  1.2E-05  2.8E-06  1.6E-04
etot    6  N  N  1  U   -2714.46380252014  3.4E-06  0.0E+00  0.0E+00
scf (DFT) done.
der1a (1-e 1st deriv.) done.
rwr (1st deriv. Q) done.
der1b (2-e 1st deriv.) done.
  Geometry optimization step 34
  Total energy:     -2714.46380252014 hartrees
  energy change:          -4.4127E-04 .  (  5.0000E-05 )
  gradient maximum:        3.0750E-03 .  (  6.5000E-04 )
  gradient rms:            4.6663E-04 *  (  5.0000E-04 )
  displacement maximum:    1.3708E-01 .  (  1.8000E-03 )
  displacement rms:        1.8608E-02 .  (  1.2000E-03 )
  
  predicted energy change: -2.0082E-03
  step size:     0.50000
  trust radius:  0.50000
---------------- geometry iteration  34 complete ----------------
geopt (optimize geometry) done.
ch (properties) done.
impact (MM calculations) done.
onee (1-electron integrals) done.
probe (project orbitals) done.
grid (grid generation) done.
rwr (Q operators) done.
  
       i  u  d  i  g
       t  p  i  c  r                                 RMS    maximum
       e  d  i  u  i                       energy  density   DIIS  
       r  t  s  t  d       total energy    change  change    error 
  
etot    1  N  N  1  U   -2714.46427777018           3.2E-05  2.4E-03
etot    2  N  Y  1  U   -2714.46509595928  8.2E-04  1.5E-05  9.4E-04
etot    3  N  Y  1  U   -2714.46524729395  1.5E-04  8.1E-06  3.6E-04
etot    4  N  Y  1  U   -2714.46527985360  3.3E-05  4.6E-06  1.7E-04
etot    5  N  N  1  U   -2714.46528906400  9.2E-06  0.0E+00  0.0E+00
scf (DFT) done.
der1a (1-e 1st deriv.) done.
rwr (1st deriv. Q) done.
der1b (2-e 1st deriv.) done.
  Geometry optimization step 35
  Total energy:     -2714.46528906400 hartrees
  energy change:          -1.4865E-03 .  (  5.0000E-05 )
  gradient maximum:        4.1526E-03 .  (  6.5000E-04 )
  gradient rms:            4.4417E-04 *  (  5.0000E-04 )
  displacement maximum:    1.7504E-01 .  (  1.8000E-03 )
  displacement rms:        1.8607E-02 .  (  1.2000E-03 )
  
  predicted energy change: -2.4496E-03
  step size:     0.49998
  trust radius:  0.50000
---------------- geometry iteration  35 complete ----------------
geopt (optimize geometry) done.
ch (properties) done.
impact (MM calculations) done.
onee (1-electron integrals) done.
probe (project orbitals) done.
grid (grid generation) done.
rwr (Q operators) done.
  
       i  u  d  i  g
       t  p  i  c  r                                 RMS    maximum
       e  d  i  u  i                       energy  density   DIIS  
       r  t  s  t  d       total energy    change  change    error 
  
etot    1  N  N  1  U   -2714.46357489904           3.0E-05  2.4E-03
etot    2  N  Y  1  U   -2714.46423793337  6.6E-04  1.4E-05  9.1E-04
etot    3  N  Y  1  U   -2714.46435737249  1.2E-04  7.7E-06  2.7E-04
etot    4  N  Y  1  U   -2714.46438490258  2.8E-05  4.4E-06  1.2E-04
etot    5  N  N  1  U   -2714.46439161968  6.7E-06  0.0E+00  0.0E+00
scf (DFT) done.
der1a (1-e 1st deriv.) done.
rwr (1st deriv. Q) done.
der1b (2-e 1st deriv.) done.
  Geometry optimization step 36
  Total energy:     -2714.46439161968 hartrees
  ** restarting optimization from step   35 **
  energy change:           8.9744E-04 .  (  5.0000E-05 )
  gradient maximum:        4.1526E-03 .  (  6.5000E-04 )
  gradient rms:            4.4417E-04 *  (  5.0000E-04 )
  displacement maximum:    1.1289E-01 .  (  1.8000E-03 )
  displacement rms:        1.8608E-02 .  (  1.2000E-03 )
  
  predicted energy change: -1.8277E-03
  step size:     0.49999
  trust radius:  0.50000
---------------- geometry iteration  36 complete ----------------
geopt (optimize geometry) done.
ch (properties) done.
impact (MM calculations) done.
onee (1-electron integrals) done.
probe (project orbitals) done.
grid (grid generation) done.
rwr (Q operators) done.
  
       i  u  d  i  g
       t  p  i  c  r                                 RMS    maximum
       e  d  i  u  i                       energy  density   DIIS  
       r  t  s  t  d       total energy    change  change    error 
  
etot    1  N  N  1  U   -2714.46521831689           1.6E-05  1.4E-03
etot    2  N  Y  1  U   -2714.46539589913  1.8E-04  7.1E-06  4.2E-04
etot    3  N  Y  1  U   -2714.46542668332  3.1E-05  3.8E-06  1.7E-04
etot    4  N  N  1  U   -2714.46543472402  8.0E-06  0.0E+00  0.0E+00
scf (DFT) done.
der1a (1-e 1st deriv.) done.
rwr (1st deriv. Q) done.
der1b (2-e 1st deriv.) done.
  Geometry optimization step 37
  Total energy:     -2714.46543472402 hartrees
  energy change:          -1.4566E-04 .  (  5.0000E-05 )
  gradient maximum:        1.1208E-02 .  (  6.5000E-04 )
  gradient rms:            8.7976E-04 .  (  5.0000E-04 )
  displacement maximum:    1.6448E-01 .  (  1.8000E-03 )
  displacement rms:        1.8604E-02 .  (  1.2000E-03 )
  
  predicted energy change: -5.7961E-03
  step size:     0.49989
  trust radius:  0.50000
---------------- geometry iteration  37 complete ----------------
geopt (optimize geometry) done.
ch (properties) done.
impact (MM calculations) done.
onee (1-electron integrals) done.
probe (project orbitals) done.
grid (grid generation) done.
rwr (Q operators) done.
  
       i  u  d  i  g
       t  p  i  c  r                                 RMS    maximum
       e  d  i  u  i                       energy  density   DIIS  
       r  t  s  t  d       total energy    change  change    error 
  
etot    1  N  N  1  U   -2714.45943366869           3.1E-05  1.5E-03
etot    2  N  Y  1  U   -2714.46003243466  6.0E-04  1.3E-05  5.7E-04
etot    3  N  Y  1  U   -2714.46013319558  1.0E-04  7.1E-06  2.5E-04
etot    4  N  Y  1  U   -2714.46015890138  2.6E-05  4.1E-06  1.2E-04
etot    5  N  N  1  U   -2714.46016542814  6.5E-06  0.0E+00  0.0E+00
scf (DFT) done.
der1a (1-e 1st deriv.) done.
rwr (1st deriv. Q) done.
der1b (2-e 1st deriv.) done.
  Geometry optimization step 38
  Total energy:     -2714.46016542814 hartrees
  ** restarting optimization from step   37 **
  energy change:           5.2693E-03 .  (  5.0000E-05 )
  gradient maximum:        1.1208E-02 .  (  6.5000E-04 )
  gradient rms:            8.7976E-04 .  (  5.0000E-04 )
  displacement maximum:    9.0464E-02 .  (  1.8000E-03 )
  displacement rms:        9.3058E-03 .  (  1.2000E-03 )
  
  predicted energy change: -2.3419E-03
  step size:     0.25005
  trust radius:  0.25000
---------------- geometry iteration  38 complete ----------------
geopt (optimize geometry) done.
ch (properties) done.
impact (MM calculations) done.
onee (1-electron integrals) done.
probe (project orbitals) done.
grid (grid generation) done.
rwr (Q operators) done.
  
       i  u  d  i  g
       t  p  i  c  r                                 RMS    maximum
       e  d  i  u  i                       energy  density   DIIS  
       r  t  s  t  d       total energy    change  change    error 
  
etot    1  N  N  1  U   -2714.46634135675           2.0E-05  5.3E-04
etot    2  N  Y  1  U   -2714.46655539097  2.1E-04  7.8E-06  2.2E-04
etot    3  N  Y  1  U   -2714.46658702861  3.2E-05  3.7E-06  1.2E-04
etot    4  N  N  1  U   -2714.46659472362  7.7E-06  0.0E+00  0.0E+00
scf (DFT) done.
der1a (1-e 1st deriv.) done.
rwr (1st deriv. Q) done.
der1b (2-e 1st deriv.) done.
  Geometry optimization step 39
  Total energy:     -2714.46659472362 hartrees
  energy change:          -1.1600E-03 .  (  5.0000E-05 )
  gradient maximum:        7.9499E-03 .  (  6.5000E-04 )
  gradient rms:            6.9116E-04 .  (  5.0000E-04 )
  displacement maximum:    5.8576E-02 .  (  1.8000E-03 )
  displacement rms:        4.6727E-03 .  (  1.2000E-03 )
  
  predicted energy change: -1.8282E-03
  step size:     0.12555
  trust radius:  0.12500
---------------- geometry iteration  39 complete ----------------
geopt (optimize geometry) done.
ch (properties) done.
impact (MM calculations) done.
onee (1-electron integrals) done.
probe (project orbitals) done.
grid (grid generation) done.
rwr (Q operators) done.
  
       i  u  d  i  g
       t  p  i  c  r                                 RMS    maximum
       e  d  i  u  i                       energy  density   DIIS  
       r  t  s  t  d       total energy    change  change    error 
  
etot    1  N  N  1  U   -2714.46739241942           6.6E-06  2.3E-04
etot    2  N  Y  1  U   -2714.46741340695  2.1E-05  2.5E-06  7.9E-05
etot    3  N  N  1  U   -2714.46741686102  3.5E-06  0.0E+00  0.0E+00
scf (DFT) done.
der1a (1-e 1st deriv.) done.
rwr (1st deriv. Q) done.
der1b (2-e 1st deriv.) done.
  Geometry optimization step 40
  Total energy:     -2714.46741686102 hartrees
  energy change:          -8.2214E-04 .  (  5.0000E-05 )
  gradient maximum:        4.4559E-03 .  (  6.5000E-04 )
  gradient rms:            3.3473E-04 *  (  5.0000E-04 )
  displacement maximum:    1.7210E-02 .  (  1.8000E-03 )
  displacement rms:        2.3268E-03 .  (  1.2000E-03 )
  
  predicted energy change: -3.1207E-04
  step size:     0.06252
  trust radius:  0.06250
---------------- geometry iteration  40 complete ----------------
geopt (optimize geometry) done.
ch (properties) done.
impact (MM calculations) done.
onee (1-electron integrals) done.
probe (project orbitals) done.
grid (grid generation) done.
rwr (Q operators) done.
  
       i  u  d  i  g
       t  p  i  c  r                                 RMS    maximum
       e  d  i  u  i                       energy  density   DIIS  
       r  t  s  t  d       total energy    change  change    error 
  
etot    1  N  N  1  U   -2714.46768662810           5.7E-06  3.3E-04
etot    2  N  Y  1  U   -2714.46770684572  2.0E-05  2.4E-06  1.3E-04
etot    3  N  N  1  U   -2714.46771067924  3.8E-06  0.0E+00  0.0E+00
scf (DFT) done.
der1a (1-e 1st deriv.) done.
rwr (1st deriv. Q) done.
der1b (2-e 1st deriv.) done.
  Geometry optimization step 41
  Total energy:     -2714.46771067924 hartrees
  energy change:          -2.9382E-04 .  (  5.0000E-05 )
  gradient maximum:        8.3776E-04 .  (  6.5000E-04 )
  gradient rms:            1.2344E-04 *  (  5.0000E-04 )
  displacement maximum:    2.1212E-02 .  (  1.8000E-03 )
  displacement rms:        3.2951E-03 .  (  1.2000E-03 )
  
  predicted energy change: -2.3239E-04
  step size:     0.08854
  trust radius:  0.08839
---------------- geometry iteration  41 complete ----------------
geopt (optimize geometry) done.
ch (properties) done.
impact (MM calculations) done.
onee (1-electron integrals) done.
probe (project orbitals) done.
grid (grid generation) done.
rwr (Q operators) done.
  
       i  u  d  i  g
       t  p  i  c  r                                 RMS    maximum
       e  d  i  u  i                       energy  density   DIIS  
       r  t  s  t  d       total energy    change  change    error 
  
etot    1  N  N  1  U   -2714.46784383970           8.3E-06  5.7E-04
etot    2  N  Y  1  U   -2714.46788724905  4.3E-05  3.9E-06  2.3E-04
etot    3  N  N  1  U   -2714.46789541055  8.2E-06  0.0E+00  0.0E+00
scf (DFT) done.
der1a (1-e 1st deriv.) done.
rwr (1st deriv. Q) done.
der1b (2-e 1st deriv.) done.
  Geometry optimization step 42
  Total energy:     -2714.46789541055 hartrees
  energy change:          -1.8473E-04 .  (  5.0000E-05 )
  gradient maximum:        9.0152E-04 .  (  6.5000E-04 )
  gradient rms:            1.0902E-04 *  (  5.0000E-04 )
  displacement maximum:    2.7495E-02 .  (  1.8000E-03 )
  displacement rms:        4.6526E-03 .  (  1.2000E-03 )
  
  predicted energy change: -3.0258E-04
  step size:     0.12502
  trust radius:  0.12500
---------------- geometry iteration  42 complete ----------------
geopt (optimize geometry) done.
ch (properties) done.
impact (MM calculations) done.
onee (1-electron integrals) done.
probe (project orbitals) done.
grid (grid generation) done.
rwr (Q operators) done.
  
       i  u  d  i  g
       t  p  i  c  r                                 RMS    maximum
       e  d  i  u  i                       energy  density   DIIS  
       r  t  s  t  d       total energy    change  change    error 
  
etot    1  N  N  1  U   -2714.46808383585           1.1E-05  7.5E-04
etot    2  N  Y  1  U   -2714.46816120885  7.7E-05  5.5E-06  3.0E-04
etot    3  N  Y  1  U   -2714.46817495524  1.4E-05  2.9E-06  1.7E-04
etot    4  N  N  1  U   -2714.46818021888  5.3E-06  0.0E+00  0.0E+00
scf (DFT) done.
der1a (1-e 1st deriv.) done.
rwr (1st deriv. Q) done.
der1b (2-e 1st deriv.) done.
  Geometry optimization step 43
  Total energy:     -2714.46818021888 hartrees
  energy change:          -2.8481E-04 .  (  5.0000E-05 )
  gradient maximum:        6.9696E-04 .  (  6.5000E-04 )
  gradient rms:            1.0363E-04 *  (  5.0000E-04 )
  displacement maximum:    4.3418E-02 .  (  1.8000E-03 )
  displacement rms:        6.5881E-03 .  (  1.2000E-03 )
  
  predicted energy change: -4.0574E-04
  step size:     0.17702
  trust radius:  0.17678
---------------- geometry iteration  43 complete ----------------
geopt (optimize geometry) done.
ch (properties) done.
impact (MM calculations) done.
onee (1-electron integrals) done.
probe (project orbitals) done.
grid (grid generation) done.
rwr (Q operators) done.
  
       i  u  d  i  g
       t  p  i  c  r                                 RMS    maximum
       e  d  i  u  i                       energy  density   DIIS  
       r  t  s  t  d       total energy    change  change    error 
  
etot    1  N  N  1  U   -2714.46828912262           1.6E-05  1.2E-03
etot    2  N  Y  1  U   -2714.46848048264  1.9E-04  7.8E-06  4.5E-04
etot    3  N  Y  1  U   -2714.46851683386  3.6E-05  4.2E-06  1.6E-04
etot    4  N  N  1  U   -2714.46852534967  8.5E-06  0.0E+00  0.0E+00
scf (DFT) done.
der1a (1-e 1st deriv.) done.
rwr (1st deriv. Q) done.
der1b (2-e 1st deriv.) done.
  Geometry optimization step 44
  Total energy:     -2714.46852534967 hartrees
  energy change:          -3.4513E-04 .  (  5.0000E-05 )
  gradient maximum:        6.8007E-04 .  (  6.5000E-04 )
  gradient rms:            1.1047E-04 *  (  5.0000E-04 )
  displacement maximum:    5.5866E-02 .  (  1.8000E-03 )
  displacement rms:        9.3043E-03 .  (  1.2000E-03 )
  
  predicted energy change: -5.3752E-04
  step size:     0.25001
  trust radius:  0.25000
---------------- geometry iteration  44 complete ----------------
geopt (optimize geometry) done.
ch (properties) done.
impact (MM calculations) done.
onee (1-electron integrals) done.
probe (project orbitals) done.
grid (grid generation) done.
rwr (Q operators) done.
  
       i  u  d  i  g
       t  p  i  c  r                                 RMS    maximum
       e  d  i  u  i                       energy  density   DIIS  
       r  t  s  t  d       total energy    change  change    error 
  
etot    1  N  N  1  U   -2714.46876819727           2.0E-05  1.3E-03
etot    2  N  Y  1  U   -2714.46903395286  2.7E-04  9.4E-06  5.3E-04
etot    3  N  Y  1  U   -2714.46908509200  5.1E-05  5.2E-06  1.6E-04
etot    4  N  Y  1  U   -2714.46909640400  1.1E-05  3.0E-06  7.9E-05
etot    5  N  N  1  U   -2714.46909998805  3.6E-06  0.0E+00  0.0E+00
scf (DFT) done.
der1a (1-e 1st deriv.) done.
rwr (1st deriv. Q) done.
der1b (2-e 1st deriv.) done.
  Geometry optimization step 45
  Total energy:     -2714.46909998805 hartrees
  energy change:          -5.7464E-04 .  (  5.0000E-05 )
  gradient maximum:        8.6989E-04 .  (  6.5000E-04 )
  gradient rms:            1.2183E-04 *  (  5.0000E-04 )
  displacement maximum:    7.6628E-02 .  (  1.8000E-03 )
  displacement rms:        1.3166E-02 .  (  1.2000E-03 )
  
  predicted energy change: -7.3616E-04
  step size:     0.35376
  trust radius:  0.35355
---------------- geometry iteration  45 complete ----------------
geopt (optimize geometry) done.
ch (properties) done.
impact (MM calculations) done.
onee (1-electron integrals) done.
probe (project orbitals) done.
grid (grid generation) done.
rwr (Q operators) done.
  
       i  u  d  i  g
       t  p  i  c  r                                 RMS    maximum
       e  d  i  u  i                       energy  density   DIIS  
       r  t  s  t  d       total energy    change  change    error 
  
etot    1  N  N  1  U   -2714.46915439863           2.7E-05  1.7E-03
etot    2  N  Y  1  U   -2714.46967955100  5.3E-04  1.3E-05  6.8E-04
etot    3  N  Y  1  U   -2714.46977770335  9.8E-05  6.9E-06  2.2E-04
etot    4  N  Y  1  U   -2714.46979887981  2.1E-05  4.0E-06  1.1E-04
etot    5  N  N  1  U   -2714.46980527510  6.4E-06  0.0E+00  0.0E+00
scf (DFT) done.
der1a (1-e 1st deriv.) done.
rwr (1st deriv. Q) done.
der1b (2-e 1st deriv.) done.
  Geometry optimization step 46
  Total energy:     -2714.46980527510 hartrees
  energy change:          -7.0529E-04 .  (  5.0000E-05 )
  gradient maximum:        1.2425E-03 .  (  6.5000E-04 )
  gradient rms:            1.4030E-04 *  (  5.0000E-04 )
  displacement maximum:    9.6743E-02 .  (  1.8000E-03 )
  displacement rms:        1.8636E-02 .  (  1.2000E-03 )
  
  predicted energy change: -9.1507E-04
  step size:     0.50075
  trust radius:  0.50000
---------------- geometry iteration  46 complete ----------------
geopt (optimize geometry) done.
ch (properties) done.
impact (MM calculations) done.
onee (1-electron integrals) done.
probe (project orbitals) done.
grid (grid generation) done.
rwr (Q operators) done.
  
       i  u  d  i  g
       t  p  i  c  r                                 RMS    maximum
       e  d  i  u  i                       energy  density   DIIS  
       r  t  s  t  d       total energy    change  change    error 
  
etot    1  N  N  1  U   -2714.46941639767           3.8E-05  2.6E-03
etot    2  N  Y  1  U   -2714.47033443807  9.2E-04  1.8E-05  1.0E-03
etot    3  N  Y  1  U   -2714.47050402312  1.7E-04  9.5E-06  3.1E-04
etot    4  N  Y  1  U   -2714.47054168861  3.8E-05  5.4E-06  1.6E-04
etot    5  N  Y  1  U   -2714.47055253581  1.1E-05  3.1E-06  7.1E-05
etot    6  N  N  1  U   -2714.47055564580  3.1E-06  0.0E+00  0.0E+00
scf (DFT) done.
der1a (1-e 1st deriv.) done.
rwr (1st deriv. Q) done.
der1b (2-e 1st deriv.) done.
  Geometry optimization step 47
  Total energy:     -2714.47055564580 hartrees
  energy change:          -7.5037E-04 .  (  5.0000E-05 )
  gradient maximum:        2.1661E-03 .  (  6.5000E-04 )
  gradient rms:            2.1106E-04 *  (  5.0000E-04 )
  displacement maximum:    9.0771E-02 .  (  1.8000E-03 )
  displacement rms:        1.8619E-02 .  (  1.2000E-03 )
  
  predicted energy change: -9.8948E-04
  step size:     0.50030
  trust radius:  0.50000
---------------- geometry iteration  47 complete ----------------
geopt (optimize geometry) done.
ch (properties) done.
impact (MM calculations) done.
onee (1-electron integrals) done.
probe (project orbitals) done.
grid (grid generation) done.
rwr (Q operators) done.
  
       i  u  d  i  g
       t  p  i  c  r                                 RMS    maximum
       e  d  i  u  i                       energy  density   DIIS  
       r  t  s  t  d       total energy    change  change    error 
  
etot    1  N  N  1  U   -2714.47013978893           4.1E-05  2.0E-03
etot    2  N  Y  1  U   -2714.47105398005  9.1E-04  1.8E-05  7.6E-04
etot    3  N  Y  1  U   -2714.47121936261  1.7E-04  9.4E-06  3.4E-04
etot    4  N  Y  1  U   -2714.47125657933  3.7E-05  5.4E-06  1.9E-04
etot    5  N  Y  1  U   -2714.47126727886  1.1E-05  3.1E-06  1.1E-04
etot    6  N  N  1  U   -2714.47127044498  3.2E-06  0.0E+00  0.0E+00
scf (DFT) done.
der1a (1-e 1st deriv.) done.
rwr (1st deriv. Q) done.
der1b (2-e 1st deriv.) done.
  Geometry optimization step 48
  Total energy:     -2714.47127044498 hartrees
  energy change:          -7.1480E-04 .  (  5.0000E-05 )
  gradient maximum:        3.6558E-03 .  (  6.5000E-04 )
  gradient rms:            2.9490E-04 *  (  5.0000E-04 )
  displacement maximum:    8.6213E-02 .  (  1.8000E-03 )
  displacement rms:        1.8611E-02 .  (  1.2000E-03 )
  
  predicted energy change: -1.0611E-03
  step size:     0.50007
  trust radius:  0.50000
---------------- geometry iteration  48 complete ----------------
geopt (optimize geometry) done.
ch (properties) done.
impact (MM calculations) done.
onee (1-electron integrals) done.
probe (project orbitals) done.
grid (grid generation) done.
rwr (Q operators) done.
  
       i  u  d  i  g
       t  p  i  c  r                                 RMS    maximum
       e  d  i  u  i                       energy  density   DIIS  
       r  t  s  t  d       total energy    change  change    error 
  
etot    1  N  N  1  U   -2714.47035522537           3.7E-05  1.6E-03
etot    2  N  Y  1  U   -2714.47130974625  9.5E-04  1.6E-05  9.1E-04
etot    3  N  Y  1  U   -2714.47147775668  1.7E-04  8.5E-06  5.2E-04
etot    4  N  Y  1  U   -2714.47151449420  3.7E-05  4.7E-06  2.9E-04
etot    5  N  Y  1  U   -2714.47152665029  1.2E-05  2.8E-06  1.7E-04
etot    6  N  N  1  U   -2714.47153017075  3.5E-06  0.0E+00  0.0E+00
scf (DFT) done.
der1a (1-e 1st deriv.) done.
rwr (1st deriv. Q) done.
der1b (2-e 1st deriv.) done.
  Geometry optimization step 49
  Total energy:     -2714.47153017075 hartrees
  energy change:          -2.5973E-04 .  (  5.0000E-05 )
  gradient maximum:        4.9792E-03 .  (  6.5000E-04 )
  gradient rms:            4.7295E-04 *  (  5.0000E-04 )
  displacement maximum:    1.5584E-01 .  (  1.8000E-03 )
  displacement rms:        1.8606E-02 .  (  1.2000E-03 )
  
  predicted energy change: -1.6250E-03
  step size:     0.49995
  trust radius:  0.50000
---------------- geometry iteration  49 complete ----------------
geopt (optimize geometry) done.
ch (properties) done.
impact (MM calculations) done.
onee (1-electron integrals) done.
probe (project orbitals) done.
grid (grid generation) done.
rwr (Q operators) done.
  
       i  u  d  i  g
       t  p  i  c  r                                 RMS    maximum
       e  d  i  u  i                       energy  density   DIIS  
       r  t  s  t  d       total energy    change  change    error 
  
etot    1  N  N  1  U   -2714.47078852041           2.6E-05  9.7E-04
etot    2  N  Y  1  U   -2714.47124165110  4.5E-04  1.1E-05  5.1E-04
etot    3  N  Y  1  U   -2714.47132006232  7.8E-05  6.1E-06  3.1E-04
etot    4  N  Y  1  U   -2714.47133780718  1.8E-05  3.4E-06  1.6E-04
etot    5  N  N  1  U   -2714.47134362580  5.8E-06  0.0E+00  0.0E+00
scf (DFT) done.
der1a (1-e 1st deriv.) done.
rwr (1st deriv. Q) done.
der1b (2-e 1st deriv.) done.
  Geometry optimization step 50
  Total energy:     -2714.47134362580 hartrees
  energy change:           1.8654E-04 .  (  5.0000E-05 )
  gradient maximum:        9.5332E-03 .  (  6.5000E-04 )
  gradient rms:            6.7598E-04 .  (  5.0000E-04 )
  displacement maximum:    1.5631E-01 .  (  1.8000E-03 )
  displacement rms:        1.8617E-02 .  (  1.2000E-03 )
  
  predicted energy change: -3.3447E-03
  step size:     0.50023
  trust radius:  0.50000
---------------- geometry iteration  50 complete ----------------
geopt (optimize geometry) done.
ch (properties) done.
impact (MM calculations) done.
onee (1-electron integrals) done.
probe (project orbitals) done.
grid (grid generation) done.
rwr (Q operators) done.
  
       i  u  d  i  g
       t  p  i  c  r                                 RMS    maximum
       e  d  i  u  i                       energy  density   DIIS  
       r  t  s  t  d       total energy    change  change    error 
  
etot    1  N  N  1  U   -2714.46819795254           3.0E-05  1.7E-03
etot    2  N  Y  1  U   -2714.46877897869  5.8E-04  1.3E-05  5.8E-04
etot    3  N  Y  1  U   -2714.46888026340  1.0E-04  6.8E-06  3.3E-04
etot    4  N  Y  1  U   -2714.46890481547  2.5E-05  3.9E-06  1.9E-04
etot    5  N  N  1  U   -2714.46891219490  7.4E-06  0.0E+00  0.0E+00
scf (DFT) done.
der1a (1-e 1st deriv.) done.
rwr (1st deriv. Q) done.
der1b (2-e 1st deriv.) done.
  Geometry optimization step 51
  Total energy:     -2714.46891219490 hartrees
  ** restarting optimization from step   50 **
  energy change:           2.4314E-03 .  (  5.0000E-05 )
  gradient maximum:        9.5332E-03 .  (  6.5000E-04 )
  gradient rms:            6.7598E-04 .  (  5.0000E-04 )
  displacement maximum:    1.4063E-01 .  (  1.8000E-03 )
  displacement rms:        1.7698E-02 .  (  1.2000E-03 )
  
  predicted energy change: -2.9446E-03
  step size:     0.47554
  trust radius:  0.50000
---------------- geometry iteration  51 complete ----------------
geopt (optimize geometry) done.
ch (properties) done.
impact (MM calculations) done.
onee (1-electron integrals) done.
probe (project orbitals) done.
grid (grid generation) done.
rwr (Q operators) done.
  
       i  u  d  i  g
       t  p  i  c  r                                 RMS    maximum
       e  d  i  u  i                       energy  density   DIIS  
       r  t  s  t  d       total energy    change  change    error 
  
etot    1  N  N  1  U   -2714.47118572273           2.2E-05  1.9E-03
etot    2  N  Y  1  U   -2714.47158423423  4.0E-04  1.0E-05  6.4E-04
etot    3  N  Y  1  U   -2714.47165874764  7.5E-05  5.3E-06  2.7E-04
etot    4  N  Y  1  U   -2714.47167482899  1.6E-05  3.0E-06  1.5E-04
etot    5  N  N  1  U   -2714.47167924012  4.4E-06  0.0E+00  0.0E+00
scf (DFT) done.
der1a (1-e 1st deriv.) done.
rwr (1st deriv. Q) done.
der1b (2-e 1st deriv.) done.
  Geometry optimization step 52
  Total energy:     -2714.47167924012 hartrees
  energy change:          -3.3561E-04 .  (  5.0000E-05 )
  gradient maximum:        8.0743E-03 .  (  6.5000E-04 )
  gradient rms:            7.9414E-04 .  (  5.0000E-04 )
  displacement maximum:    1.7094E-01 .  (  1.8000E-03 )
  displacement rms:        1.8609E-02 .  (  1.2000E-03 )
  
  predicted energy change: -3.8067E-03
  step size:     0.50002
  trust radius:  0.50000
---------------- geometry iteration  52 complete ----------------
geopt (optimize geometry) done.
ch (properties) done.
impact (MM calculations) done.
onee (1-electron integrals) done.
probe (project orbitals) done.
grid (grid generation) done.
rwr (Q operators) done.
  
       i  u  d  i  g
       t  p  i  c  r                                 RMS    maximum
       e  d  i  u  i                       energy  density   DIIS  
       r  t  s  t  d       total energy    change  change    error 
  
etot    1  N  N  1  U   -2714.46965327087           3.1E-05  1.5E-03
etot    2  N  Y  1  U   -2714.47029171307  6.4E-04  1.3E-05  4.6E-04
etot    3  N  Y  1  U   -2714.47039325799  1.0E-04  7.3E-06  1.7E-04
etot    4  N  Y  1  U   -2714.47041861544  2.5E-05  4.2E-06  1.2E-04
etot    5  N  N  1  U   -2714.47042551336  6.9E-06  0.0E+00  0.0E+00
scf (DFT) done.
der1a (1-e 1st deriv.) done.
rwr (1st deriv. Q) done.
der1b (2-e 1st deriv.) done.
  Geometry optimization step 53
  Total energy:     -2714.47042551336 hartrees
  energy change:           1.2537E-03 .  (  5.0000E-05 )
  gradient maximum:        1.6921E-02 .  (  6.5000E-04 )
  gradient rms:            1.2163E-03 .  (  5.0000E-04 )
  displacement maximum:    9.8975E-02 .  (  1.8000E-03 )
  displacement rms:        1.2351E-02 .  (  1.2000E-03 )
  
  predicted energy change: -4.0635E-03
  step size:     0.33186
  trust radius:  0.50000
---------------- geometry iteration  53 complete ----------------
geopt (optimize geometry) done.
ch (properties) done.
impact (MM calculations) done.
onee (1-electron integrals) done.
probe (project orbitals) done.
grid (grid generation) done.
rwr (Q operators) done.
  
       i  u  d  i  g
       t  p  i  c  r                                 RMS    maximum
       e  d  i  u  i                       energy  density   DIIS  
       r  t  s  t  d       total energy    change  change    error 
  
etot    1  N  N  1  U   -2714.47822979288           1.9E-05  6.5E-04
etot    2  N  Y  1  U   -2714.47842411781  1.9E-04  7.3E-06  2.9E-04
etot    3  N  Y  1  U   -2714.47845414627  3.0E-05  3.7E-06  1.7E-04
etot    4  N  N  1  U   -2714.47846087311  6.7E-06  0.0E+00  0.0E+00
scf (DFT) done.
der1a (1-e 1st deriv.) done.
rwr (1st deriv. Q) done.
der1b (2-e 1st deriv.) done.
  Geometry optimization step 54
  Total energy:     -2714.47846087311 hartrees
  energy change:          -8.0354E-03 .  (  5.0000E-05 )
  gradient maximum:        4.6406E-03 .  (  6.5000E-04 )
  gradient rms:            4.8314E-04 *  (  5.0000E-04 )
[...]
       r  t  s  t  d       total energy    change  change    error 
  
etot    1  N  N  1  U   -2714.61632430896           2.5E-05  2.3E-03
etot    2  N  Y  1  U   -2714.61686598114  5.4E-04  1.1E-05  7.2E-04
etot    3  N  Y  1  U   -2714.61695702214  9.1E-05  6.0E-06  2.9E-04
etot    4  N  Y  1  U   -2714.61697694384  2.0E-05  3.4E-06  1.5E-04
etot    5  N  N  1  U   -2714.61698266219  5.7E-06  0.0E+00  0.0E+00
scf (DFT) done.
der1a (1-e 1st deriv.) done.
rwr (1st deriv. Q) done.
der1b (2-e 1st deriv.) done.
  Geometry optimization step 88
  Total energy:     -2714.61698266219 hartrees
  energy change:           4.3008E-04 .  (  5.0000E-05 )
  gradient maximum:        1.2226E-02 .  (  6.5000E-04 )
  gradient rms:            1.0903E-03 .  (  5.0000E-04 )
  displacement maximum:    1.2601E-01 .  (  1.8000E-03 )
  displacement rms:        1.6795E-02 .  (  1.2000E-03 )
  
  predicted energy change: -3.6989E-03
  step size:     0.45129
  trust radius:  0.50000
---------------- geometry iteration  88 complete ----------------
geopt (optimize geometry) done.
ch (properties) done.
impact (MM calculations) done.
onee (1-electron integrals) done.
probe (project orbitals) done.
grid (grid generation) done.
rwr (Q operators) done.
  
       i  u  d  i  g
       t  p  i  c  r                                 RMS    maximum
       e  d  i  u  i                       energy  density   DIIS  
       r  t  s  t  d       total energy    change  change    error 
  
etot    1  N  N  1  U   -2714.61911508516           2.1E-05  2.2E-03
etot    2  N  Y  1  U   -2714.61956705549  4.5E-04  1.1E-05  7.8E-04
etot    3  N  Y  1  U   -2714.61965774072  9.1E-05  5.8E-06  2.9E-04
etot    4  N  Y  1  U   -2714.61967627112  1.9E-05  3.3E-06  1.4E-04
etot    5  N  N  1  U   -2714.61968156113  5.3E-06  0.0E+00  0.0E+00
scf (DFT) done.
der1a (1-e 1st deriv.) done.
rwr (1st deriv. Q) done.
der1b (2-e 1st deriv.) done.
  Geometry optimization step 89
  Total energy:     -2714.61968156113 hartrees
  energy change:          -2.6989E-03 .  (  5.0000E-05 )
  gradient maximum:        8.1053E-03 .  (  6.5000E-04 )
  gradient rms:            6.9650E-04 .  (  5.0000E-04 )
  displacement maximum:    1.2641E-01 .  (  1.8000E-03 )
  displacement rms:        1.8632E-02 .  (  1.2000E-03 )
  
  predicted energy change: -4.1162E-03
  step size:     0.50064
  trust radius:  0.50000
---------------- geometry iteration  89 complete ----------------
geopt (optimize geometry) done.
ch (properties) done.
impact (MM calculations) done.
onee (1-electron integrals) done.
probe (project orbitals) done.
grid (grid generation) done.
rwr (Q operators) done.
  
       i  u  d  i  g
       t  p  i  c  r                                 RMS    maximum
       e  d  i  u  i                       energy  density   DIIS  
       r  t  s  t  d       total energy    change  change    error 
  
etot    1  N  N  1  U   -2714.61859276202           2.4E-05  1.5E-03
etot    2  N  Y  1  U   -2714.61903635804  4.4E-04  1.0E-05  5.2E-04
etot    3  N  Y  1  U   -2714.61910819480  7.2E-05  5.6E-06  2.7E-04
etot    4  N  Y  1  U   -2714.61912448405  1.6E-05  3.2E-06  1.3E-04
etot    5  N  N  1  U   -2714.61912861181  4.1E-06  0.0E+00  0.0E+00
scf (DFT) done.
der1a (1-e 1st deriv.) done.
rwr (1st deriv. Q) done.
der1b (2-e 1st deriv.) done.
  Geometry optimization step 90
  Total energy:     -2714.61912861181 hartrees
  energy change:           5.5295E-04 .  (  5.0000E-05 )
  gradient maximum:        1.7424E-02 .  (  6.5000E-04 )
  gradient rms:            1.1980E-03 .  (  5.0000E-04 )
  displacement maximum:    1.1504E-01 .  (  1.8000E-03 )
  displacement rms:        1.5459E-02 .  (  1.2000E-03 )
  
  predicted energy change: -3.9876E-03
  step size:     0.41539
  trust radius:  0.50000
---------------- geometry iteration  90 complete ----------------
geopt (optimize geometry) done.
ch (properties) done.
impact (MM calculations) done.
onee (1-electron integrals) done.
probe (project orbitals) done.
grid (grid generation) done.
rwr (Q operators) done.
  
       i  u  d  i  g
       t  p  i  c  r                                 RMS    maximum
       e  d  i  u  i                       energy  density   DIIS  
       r  t  s  t  d       total energy    change  change    error 
  
etot    1  N  N  1  U   -2714.62183699122           2.0E-05  1.8E-03
etot    2  N  Y  1  U   -2714.62219794331  3.6E-04  1.0E-05  6.0E-04
etot    3  N  Y  1  U   -2714.62226992008  7.2E-05  5.4E-06  2.3E-04
etot    4  N  Y  1  U   -2714.62228460280  1.5E-05  3.1E-06  1.3E-04
etot    5  N  N  1  U   -2714.62228888807  4.3E-06  0.0E+00  0.0E+00
scf (DFT) done.
der1a (1-e 1st deriv.) done.
rwr (1st deriv. Q) done.
der1b (2-e 1st deriv.) done.
  Geometry optimization step 91
  Total energy:     -2714.62228888807 hartrees
  energy change:          -3.1603E-03 .  (  5.0000E-05 )
  gradient maximum:        6.1438E-03 .  (  6.5000E-04 )
  gradient rms:            4.9510E-04 *  (  5.0000E-04 )
  displacement maximum:    1.4197E-01 .  (  1.8000E-03 )
  displacement rms:        1.8605E-02 .  (  1.2000E-03 )
  
  predicted energy change: -2.7959E-03
  step size:     0.49992
  trust radius:  0.50000
---------------- geometry iteration  91 complete ----------------
geopt (optimize geometry) done.
ch (properties) done.
impact (MM calculations) done.
onee (1-electron integrals) done.
probe (project orbitals) done.
grid (grid generation) done.
rwr (Q operators) done.
  
       i  u  d  i  g
       t  p  i  c  r                                 RMS    maximum
       e  d  i  u  i                       energy  density   DIIS  
       r  t  s  t  d       total energy    change  change    error 
  
etot    1  N  N  1  U   -2714.62191477331           2.0E-05  1.6E-03
etot    2  N  Y  1  U   -2714.62221934930  3.0E-04  9.0E-06  4.4E-04
etot    3  N  Y  1  U   -2714.62227070799  5.1E-05  4.9E-06  1.9E-04
etot    4  N  Y  1  U   -2714.62228337219  1.3E-05  2.8E-06  8.3E-05
etot    5  N  N  1  U   -2714.62228680305  3.4E-06  0.0E+00  0.0E+00
scf (DFT) done.
der1a (1-e 1st deriv.) done.
rwr (1st deriv. Q) done.
der1b (2-e 1st deriv.) done.
  Geometry optimization step 92
  Total energy:     -2714.62228680305 hartrees
  energy change:           2.0850E-06 #  (  5.0000E-05 )
  gradient maximum:        5.5848E-03 .  (  6.5000E-04 )
  gradient rms:            6.3674E-04 .  (  5.0000E-04 )
  displacement maximum:    1.4782E-01 .  (  1.8000E-03 )
  displacement rms:        1.8617E-02 .  (  1.2000E-03 )
  
  predicted energy change: -2.8527E-03
  step size:     0.50023
  trust radius:  0.50000
---------------- geometry iteration  92 complete ----------------
geopt (optimize geometry) done.
ch (properties) done.
impact (MM calculations) done.
onee (1-electron integrals) done.
probe (project orbitals) done.
grid (grid generation) done.
rwr (Q operators) done.
  
       i  u  d  i  g
       t  p  i  c  r                                 RMS    maximum
       e  d  i  u  i                       energy  density   DIIS  
       r  t  s  t  d       total energy    change  change    error 
  
etot    1  N  N  1  U   -2714.62403922649           2.4E-05  1.3E-03
etot    2  N  Y  1  U   -2714.62448136113  4.4E-04  1.1E-05  4.5E-04
etot    3  N  Y  1  U   -2714.62456348636  8.2E-05  5.9E-06  2.9E-04
etot    4  N  Y  1  U   -2714.62458180341  1.8E-05  3.3E-06  1.4E-04
etot    5  N  N  1  U   -2714.62458658259  4.8E-06  0.0E+00  0.0E+00
scf (DFT) done.
der1a (1-e 1st deriv.) done.
rwr (1st deriv. Q) done.
der1b (2-e 1st deriv.) done.
  Geometry optimization step 93
  Total energy:     -2714.62458658259 hartrees
  energy change:          -2.2998E-03 .  (  5.0000E-05 )
  gradient maximum:        4.5266E-03 .  (  6.5000E-04 )
  gradient rms:            4.2641E-04 *  (  5.0000E-04 )
  displacement maximum:    1.6353E-01 .  (  1.8000E-03 )
  displacement rms:        1.8607E-02 .  (  1.2000E-03 )
  
  predicted energy change: -2.6590E-03
  step size:     0.49997
  trust radius:  0.50000
---------------- geometry iteration  93 complete ----------------
geopt (optimize geometry) done.
ch (properties) done.
impact (MM calculations) done.
onee (1-electron integrals) done.
probe (project orbitals) done.
grid (grid generation) done.
rwr (Q operators) done.
  
       i  u  d  i  g
       t  p  i  c  r                                 RMS    maximum
       e  d  i  u  i                       energy  density   DIIS  
       r  t  s  t  d       total energy    change  change    error 
  
etot    1  N  N  1  U   -2714.63855233390           2.4E-05  1.5E-03
etot    2  N  Y  1  U   -2714.63890127149  3.5E-04  1.0E-05  7.8E-04
etot    3  N  Y  1  U   -2714.63896562662  6.4E-05  5.4E-06  5.1E-04
etot    4  N  Y  1  U   -2714.63898293486  1.7E-05  3.0E-06  2.8E-04
etot    5  N  N  1  U   -2714.63898726867  4.3E-06  0.0E+00  0.0E+00
scf (DFT) done.
der1a (1-e 1st deriv.) done.
rwr (1st deriv. Q) done.
der1b (2-e 1st deriv.) done.
  Geometry optimization step 94
  Total energy:     -2714.63898726867 hartrees
  ** restarting optimization from step   93 **
  energy change:          -1.4401E-02 .  (  5.0000E-05 )
  gradient maximum:        4.5266E-03 .  (  6.5000E-04 )
  gradient rms:            4.2641E-04 *  (  5.0000E-04 )
  displacement maximum:    1.2143E-01 .  (  1.8000E-03 )
  displacement rms:        1.8611E-02 .  (  1.2000E-03 )
  
  predicted energy change: -1.9751E-03
  step size:     0.50007
  trust radius:  0.50000
---------------- geometry iteration  94 complete ----------------
geopt (optimize geometry) done.
ch (properties) done.
impact (MM calculations) done.
onee (1-electron integrals) done.
probe (project orbitals) done.
grid (grid generation) done.
rwr (Q operators) done.
  
       i  u  d  i  g
       t  p  i  c  r                                 RMS    maximum
       e  d  i  u  i                       energy  density   DIIS  
       r  t  s  t  d       total energy    change  change    error 
  
etot    1  N  N  1  U   -2714.64154838306           1.5E-05  1.3E-03
etot    2  N  Y  1  U   -2714.64171664650  1.7E-04  6.9E-06  3.8E-04
etot    3  N  Y  1  U   -2714.64174873377  3.2E-05  3.7E-06  1.8E-04
etot    4  N  N  1  U   -2714.64175629632  7.6E-06  0.0E+00  0.0E+00
scf (DFT) done.
der1a (1-e 1st deriv.) done.
rwr (1st deriv. Q) done.
der1b (2-e 1st deriv.) done.
  Geometry optimization step 95
  Total energy:     -2714.64175629632 hartrees
  energy change:          -1.7170E-02 .  (  5.0000E-05 )
  gradient maximum:        6.9827E-03 .  (  6.5000E-04 )
  gradient rms:            5.7210E-04 .  (  5.0000E-04 )
  displacement maximum:    1.5910E-01 .  (  1.8000E-03 )
  displacement rms:        1.8608E-02 .  (  1.2000E-03 )
  
  predicted energy change: -3.8652E-03
  step size:     0.50000
  trust radius:  0.50000
---------------- geometry iteration  95 complete ----------------
geopt (optimize geometry) done.
ch (properties) done.
impact (MM calculations) done.
onee (1-electron integrals) done.
probe (project orbitals) done.
grid (grid generation) done.
rwr (Q operators) done.
  
       i  u  d  i  g
       t  p  i  c  r                                 RMS    maximum
       e  d  i  u  i                       energy  density   DIIS  
       r  t  s  t  d       total energy    change  change    error 
  
etot    1  N  N  1  U   -2714.63940652165           2.3E-05  1.5E-03
etot    2  N  Y  1  U   -2714.63980580884  4.0E-04  1.0E-05  9.0E-04
etot    3  N  Y  1  U   -2714.63987441473  6.9E-05  5.2E-06  5.2E-04
etot    4  N  Y  1  U   -2714.63989144706  1.7E-05  2.9E-06  3.0E-04
etot    5  N  N  1  U   -2714.63989634161  4.9E-06  0.0E+00  0.0E+00
scf (DFT) done.
der1a (1-e 1st deriv.) done.
rwr (1st deriv. Q) done.
der1b (2-e 1st deriv.) done.
  Geometry optimization step 96
  Total energy:     -2714.63989634161 hartrees
  energy change:           1.8600E-03 .  (  5.0000E-05 )
  gradient maximum:        1.3434E-02 .  (  6.5000E-04 )
  gradient rms:            1.2214E-03 .  (  5.0000E-04 )
  displacement maximum:    1.2007E-01 .  (  1.8000E-03 )
  displacement rms:        1.6578E-02 .  (  1.2000E-03 )
  
  predicted energy change: -4.8705E-03
  step size:     0.44544
  trust radius:  0.50000
---------------- geometry iteration  96 complete ----------------
geopt (optimize geometry) done.
ch (properties) done.
impact (MM calculations) done.
onee (1-electron integrals) done.
probe (project orbitals) done.
grid (grid generation) done.
rwr (Q operators) done.
  
       i  u  d  i  g
       t  p  i  c  r                                 RMS    maximum
       e  d  i  u  i                       energy  density   DIIS  
       r  t  s  t  d       total energy    change  change    error 
  
etot    1  N  N  1  U   -2714.64165296343           2.2E-05  1.5E-03
etot    2  N  Y  1  U   -2714.64206481911  4.1E-04  1.0E-05  8.8E-04
etot    3  N  Y  1  U   -2714.64214503141  8.0E-05  5.4E-06  5.4E-04
etot    4  N  Y  1  U   -2714.64216343425  1.8E-05  3.0E-06  2.9E-04
etot    5  N  N  1  U   -2714.64216884211  5.4E-06  0.0E+00  0.0E+00
scf (DFT) done.
der1a (1-e 1st deriv.) done.
rwr (1st deriv. Q) done.
der1b (2-e 1st deriv.) done.
  Geometry optimization step 97
  Total energy:     -2714.64216884211 hartrees
  energy change:          -2.2725E-03 .  (  5.0000E-05 )
  gradient maximum:        9.8429E-03 .  (  6.5000E-04 )
  gradient rms:            8.8590E-04 .  (  5.0000E-04 )
  displacement maximum:    2.1646E-01 .  (  1.8000E-03 )
  displacement rms:        1.8605E-02 .  (  1.2000E-03 )
  
  predicted energy change: -5.4598E-03
  step size:     0.49993
  trust radius:  0.50000
---------------- geometry iteration  97 complete ----------------
geopt (optimize geometry) done.
ch (properties) done.
impact (MM calculations) done.
onee (1-electron integrals) done.
probe (project orbitals) done.
grid (grid generation) done.
rwr (Q operators) done.
  
       i  u  d  i  g
       t  p  i  c  r                                 RMS    maximum
       e  d  i  u  i                       energy  density   DIIS  
       r  t  s  t  d       total energy    change  change    error 
  
etot    1  N  N  1  U   -2714.64135903731           1.6E-05  9.8E-04
etot    2  N  Y  1  U   -2714.64155712359  2.0E-04  6.8E-06  5.3E-04
etot    3  N  Y  1  U   -2714.64159138499  3.4E-05  3.7E-06  3.0E-04
etot    4  N  N  1  U   -2714.64159887165  7.5E-06  0.0E+00  0.0E+00
scf (DFT) done.
der1a (1-e 1st deriv.) done.
rwr (1st deriv. Q) done.
der1b (2-e 1st deriv.) done.
  Geometry optimization step 98
  Total energy:     -2714.64159887165 hartrees
  energy change:           5.6997E-04 .  (  5.0000E-05 )
  gradient maximum:        1.5555E-02 .  (  6.5000E-04 )
  gradient rms:            1.2430E-03 .  (  5.0000E-04 )
  displacement maximum:    1.1194E-01 .  (  1.8000E-03 )
  displacement rms:        1.3487E-02 .  (  1.2000E-03 )
  
  predicted energy change: -3.7985E-03
  step size:     0.36240
  trust radius:  0.50000
---------------- geometry iteration  98 complete ----------------
geopt (optimize geometry) done.
ch (properties) done.
impact (MM calculations) done.
onee (1-electron integrals) done.
probe (project orbitals) done.
grid (grid generation) done.
rwr (Q operators) done.
  
       i  u  d  i  g
       t  p  i  c  r                                 RMS    maximum
       e  d  i  u  i                       energy  density   DIIS  
       r  t  s  t  d       total energy    change  change    error 
  
etot    1  N  N  1  U   -2714.64426794667           2.0E-05  1.3E-03
etot    2  N  Y  1  U   -2714.64458902183  3.2E-04  9.4E-06  7.6E-04
etot    3  N  Y  1  U   -2714.64465389158  6.5E-05  5.1E-06  4.6E-04
etot    4  N  Y  1  U   -2714.64466791335  1.4E-05  2.8E-06  2.5E-04
etot    5  N  N  1  U   -2714.64467238102  4.5E-06  0.0E+00  0.0E+00
scf (DFT) done.
der1a (1-e 1st deriv.) done.
rwr (1st deriv. Q) done.
der1b (2-e 1st deriv.) done.
  Geometry optimization step 99
  Total energy:     -2714.64467238102 hartrees
  energy change:          -3.0735E-03 .  (  5.0000E-05 )
  gradient maximum:        5.3629E-03 .  (  6.5000E-04 )
  gradient rms:            4.9739E-04 *  (  5.0000E-04 )
  displacement maximum:    1.7046E-01 .  (  1.8000E-03 )
  displacement rms:        1.8603E-02 .  (  1.2000E-03 )
  
  predicted energy change: -3.3839E-03
  step size:     0.49986
  trust radius:  0.50000
---------------- geometry iteration  99 complete ----------------
geopt (optimize geometry) done.
ch (properties) done.
impact (MM calculations) done.
onee (1-electron integrals) done.
probe (project orbitals) done.
grid (grid generation) done.
rwr (Q operators) done.
  
       i  u  d  i  g
       t  p  i  c  r                                 RMS    maximum
       e  d  i  u  i                       energy  density   DIIS  
       r  t  s  t  d       total energy    change  change    error 
  
etot    1  N  N  1  U   -2714.64042520671           2.5E-05  2.3E-03
etot    2  N  Y  1  U   -2714.64094408479  5.2E-04  1.1E-05  1.3E-03
etot    3  N  Y  1  U   -2714.64103825585  9.4E-05  5.8E-06  7.7E-04
etot    4  N  Y  1  U   -2714.64105960122  2.1E-05  3.2E-06  4.3E-04
etot    5  N  N  1  U   -2714.64106678804  7.2E-06  0.0E+00  0.0E+00
scf (DFT) done.
der1a (1-e 1st deriv.) done.
rwr (1st deriv. Q) done.
der1b (2-e 1st deriv.) done.
  Geometry optimization step100
  Total energy:     -2714.64106678804 hartrees
  ** restarting optimization from step   99 **
  energy change:           3.6056E-03 .  (  5.0000E-05 )
  gradient maximum:        5.3629E-03 .  (  6.5000E-04 )
  gradient rms:            4.9739E-04 *  (  5.0000E-04 )
  displacement maximum:    9.5916E-02 .  (  1.8000E-03 )
  displacement rms:        1.8607E-02 .  (  1.2000E-03 )
  
  predicted energy change: -1.7562E-03
  step size:     0.49998
  trust radius:  0.50000
---------------- geometry iteration 100 complete ----------------
geopt (optimize geometry) done.
ch (properties) done.
impact (MM calculations) done.
onee (1-electron integrals) done.
probe (project orbitals) done.
grid (grid generation) done.
rwr (Q operators) done.
  
       i  u  d  i  g
       t  p  i  c  r                                 RMS    maximum
       e  d  i  u  i                       energy  density   DIIS  
       r  t  s  t  d       total energy    change  change    error 
  
etot    1  N  N  1  U   -2714.64576538491           2.0E-05  1.5E-03
etot    2  N  Y  1  U   -2714.64609804242  3.3E-04  9.3E-06  9.5E-04
etot    3  N  Y  1  U   -2714.64616568508  6.8E-05  5.0E-06  5.6E-04
etot    4  N  Y  1  U   -2714.64618064145  1.5E-05  2.8E-06  3.2E-04
etot    5  N  N  1  U   -2714.64618505349  4.4E-06  0.0E+00  0.0E+00
scf (DFT) done.
der1a (1-e 1st deriv.) done.
rwr (1st deriv. Q) done.
der1b (2-e 1st deriv.) done.
  Geometry optimization step101
  Total energy:     -2714.64618505349 hartrees
  energy change:          -1.5127E-03 .  (  5.0000E-05 )
  gradient maximum:        2.9523E-03 .  (  6.5000E-04 )
  gradient rms:            3.4976E-04 *  (  5.0000E-04 )
  displacement maximum:    1.6395E-01 .  (  1.8000E-03 )
  displacement rms:        1.8608E-02 .  (  1.2000E-03 )
  
  predicted energy change: -2.1478E-03
  step size:     0.49999
  trust radius:  0.50000
  stopping optimization: maximum number of iterations reached
  
------------- final geometry iteration 101 complete -------------
geopt (optimize geometry) done.
ch (properties) done.
impact (MM calculations) done.
  scan:   r = 3.226   energy =    -2714.646185
============= geometry scan iteration   1 complete ==============
WARNING mmjag_scan_adjust: The scan of type 'Distance' involving atoms '71,84,0,0'
affects other scans/constraints.  As the nofail mode is set (nofail=1), only the last
atom in the scan coordinate will be moved.
  
Molecular Point Group: C1      
Point Group used: C1 (symmetry turned off)
scanner (geometry scan) done.
Impact exited with an error.
Job qsite_9 halted prematurely on bsccls308 at Sat Mar 10 02:44:23 2018
Timer (jaguar_backend.py) : 128110.52 secs (1 day, 11 hrs, 35 mins, 10 secs)
Finished:   Sat Mar 10 02:44:23 2018
