/home/carlespl/.local/lib/python2.7/site-packages/scipy/__init__.py:110: UserWarning: Numpy 1.8.2 or above is recommended for this version of scipy (detected version 1.8.1)
  UserWarning)
Command:    jaguar run jexec.py -jobname qsite_8 qsite_8.in
[running at reduced cpu priority]
Release:    2016-4
Exec:       /opt/schrodinger2016-4/jaguar-v9.4/bin/Linux-x86_64
Host:       bsccls308
JobId:      bsccls308-0-5aa141ff
JobDir:     /var/tmp/carlespl/qsite_8
Date:       Thu Mar  8 15:00:32 2018

Contents of /var/tmp/carlespl/qsite_8:
/var/tmp/carlespl/qsite_8/qsite_8.mae
/var/tmp/carlespl/qsite_8/qsite_8.recover
/var/tmp/carlespl/qsite_8/bsccls308-0-5aa141ff.recover
/var/tmp/carlespl/qsite_8/bsccls308-0-5aa141ff
/var/tmp/carlespl/qsite_8/qsite_8.in
/var/tmp/carlespl/qsite_8/qsite_8.log
/var/tmp/carlespl/qsite_8/bsccls308-0-5aa141ff.mpinodes

Executing subprocess:
/opt/schrodinger2016-4/jaguar-v9.4/bin/Linux-x86_64/jexec qsite_8.in -cwd -out /var/tmp/carlespl/qsite_8


** WARNING! Your Jaguar license will expire in 14 days. **

[running at reduced cpu priority]
Job qsite_8 started on bsccls308 at Thu Mar  8 15:00:32 2018
jobid: bsccls308-0-5aa141ff 
Jaguar version 9.4, release  15
pre (input checking) done.
impact (MM calculations) done.
  
  ** Warning: When frozen orbitals or hydrogen caps are present, certain
  ** calculated properties may not be valid.  Such properties include ESP
  ** charges for atoms near the QM/MM boundary, and molecular properties
  ** such as homo/lumo energies.  See the QSite manual for more details.
  
  ** Impact will be rerun as geometry has changed due to scan.
Molecular Point Group: C1      
Point Group used: C1 (symmetry turned off)
pre (input checking) done.
impact (MM calculations) done.
  
  ** Warning: When frozen orbitals or hydrogen caps are present, certain
  ** calculated properties may not be valid.  Such properties include ESP
  ** charges for atoms near the QM/MM boundary, and molecular properties
  ** such as homo/lumo energies.  See the QSite manual for more details.
  
Molecular Point Group: C1      
Point Group used: C1 (symmetry turned off)
pre (input checking) done.
onee (1-electron integrals) done.
hfig (HF initial guess) done.
probe (project orbitals) done.
grid (grid generation) done.
rwr (Q operators) done.
scf type: DFT=Becke_3_Parameter/HF+Slater+Becke88+VWN+LYP (B3LYP)
  
       i  u  d  i  g
       t  p  i  c  r                                 RMS    maximum
       e  d  i  u  i                       energy  density   DIIS  
       r  t  s  t  d       total energy    change  change    error 
  
etot    1  N  N  1  U   -2691.21443434072           2.4E-03  1.5E-01
etot    2  N  Y  1  U   -2697.90550003759  6.7E+00  1.3E-03  4.1E-02
etot    3  N  Y  1  U   -2699.06579840793  1.2E+00  6.9E-04  3.0E-02
etot    4  N  Y  1  U   -2699.35621748984  2.9E-01  3.4E-04  1.1E-02
etot    5  N  Y  1  U   -2699.40204357002  4.6E-02  1.7E-04  4.1E-03
etot    6  N  Y  1  U   -2699.40989895851  7.9E-03  9.1E-05  1.6E-03
etot    7  N  Y  1  U   -2699.41192170181  2.0E-03  5.1E-05  6.1E-04
etot    8  N  Y  1  U   -2699.41252017233  6.0E-04  3.0E-05  3.1E-04
etot    9  N  Y  1  U   -2699.41273314742  2.1E-04  1.8E-05  2.5E-04
etot   10  N  Y  1  U   -2699.41281846264  8.5E-05  1.2E-05  1.5E-04
etot   11  N  Y  1  U   -2699.41285387764  3.5E-05  7.7E-06  1.1E-04
etot   12  N  Y  1  U   -2699.41286865545  1.5E-05  5.1E-06  7.3E-05
etot   13  N  Y  1  U   -2699.41287553603  6.9E-06  3.5E-06  5.0E-05
etot   14  N  N  1  U   -2699.41287859328  3.1E-06  0.0E+00  0.0E+00
scf (DFT) done.
der1a (1-e 1st deriv.) done.
rwr (1st deriv. Q) done.
der1b (2-e 1st deriv.) done.
geopt (optimize geometry) done.
ch (properties) done.
impact (MM calculations) done.
onee (1-electron integrals) done.
probe (project orbitals) done.
grid (grid generation) done.
rwr (Q operators) done.
scf type: DFT=Becke_3_Parameter/HF+Slater+Becke88+VWN+LYP (B3LYP)
  
       i  u  d  i  g
       t  p  i  c  r                                 RMS    maximum
       e  d  i  u  i                       energy  density   DIIS  
       r  t  s  t  d       total energy    change  change    error 
  
etot    1  N  N  1  U   -2714.04764236010           1.2E-04  3.5E-03
etot    2  N  Y  1  U   -2714.05045713204  2.8E-03  4.2E-05  7.6E-04
etot    3  N  Y  1  U   -2714.05081496807  3.6E-04  1.9E-05  8.6E-04
etot    4  N  Y  1  U   -2714.05089980644  8.5E-05  9.4E-06  1.7E-04
etot    5  N  Y  1  U   -2714.05091990495  2.0E-05  5.0E-06  1.6E-04
etot    6  N  N  1  U   -2714.05092555652  5.7E-06  0.0E+00  0.0E+00
scf (DFT) done.
der1a (1-e 1st deriv.) done.
rwr (1st deriv. Q) done.
der1b (2-e 1st deriv.) done.
  Geometry optimization step  1
  Total energy:     -2714.05092555652 hartrees
  gradient maximum:        2.0943E-02 .  (  6.5000E-04 )
  gradient rms:            4.6494E-03 .  (  5.0000E-04 )
  displacement maximum:    6.7924E-02 .  (  1.8000E-03 )
  displacement rms:        1.8603E-02 .  (  1.2000E-03 )
  
  predicted energy change: -4.1324E-02
  step size:     0.49986
  trust radius:  0.50000
---------------- geometry iteration   1 complete ----------------
geopt (optimize geometry) done.
ch (properties) done.
impact (MM calculations) done.
onee (1-electron integrals) done.
probe (project orbitals) done.
grid (grid generation) done.
rwr (Q operators) done.
  
       i  u  d  i  g
       t  p  i  c  r                                 RMS    maximum
       e  d  i  u  i                       energy  density   DIIS  
       r  t  s  t  d       total energy    change  change    error 
  
etot    1  N  N  1  U   -2714.07959431622           1.3E-04  4.6E-03
etot    2  N  Y  1  U   -2714.08869102496  9.1E-03  6.1E-05  1.7E-03
etot    3  N  Y  1  U   -2714.09021266808  1.5E-03  3.0E-05  7.4E-04
etot    4  N  Y  1  U   -2714.09068337143  4.7E-04  1.6E-05  3.0E-04
etot    5  N  Y  1  U   -2714.09075972718  7.6E-05  8.5E-06  1.8E-04
etot    6  N  Y  1  U   -2714.09077985416  2.0E-05  4.7E-06  7.8E-05
etot    7  N  N  1  U   -2714.09078540490  5.6E-06  0.0E+00  0.0E+00
scf (DFT) done.
der1a (1-e 1st deriv.) done.
rwr (1st deriv. Q) done.
der1b (2-e 1st deriv.) done.
  Geometry optimization step  2
  Total energy:     -2714.09078540490 hartrees
  energy change:          -3.9860E-02 .  (  5.0000E-05 )
  gradient maximum:        8.4766E-03 .  (  6.5000E-04 )
  gradient rms:            1.8637E-03 .  (  5.0000E-04 )
  displacement maximum:    8.0730E-02 .  (  1.8000E-03 )
  displacement rms:        1.8607E-02 .  (  1.2000E-03 )
  
  predicted energy change: -1.6025E-02
  step size:     0.49996
  trust radius:  0.50000
---------------- geometry iteration   2 complete ----------------
geopt (optimize geometry) done.
ch (properties) done.
impact (MM calculations) done.
onee (1-electron integrals) done.
probe (project orbitals) done.
grid (grid generation) done.
rwr (Q operators) done.
  
       i  u  d  i  g
       t  p  i  c  r                                 RMS    maximum
       e  d  i  u  i                       energy  density   DIIS  
       r  t  s  t  d       total energy    change  change    error 
  
etot    1  N  N  1  U   -2714.10082883631           9.5E-05  2.7E-03
etot    2  N  Y  1  U   -2714.10637522350  5.5E-03  4.4E-05  8.2E-04
etot    3  N  Y  1  U   -2714.10735885659  9.8E-04  2.3E-05  4.9E-04
etot    4  N  Y  1  U   -2714.10763625511  2.8E-04  1.3E-05  2.0E-04
etot    5  N  Y  1  U   -2714.10769326189  5.7E-05  7.3E-06  1.3E-04
etot    6  N  Y  1  U   -2714.10771088165  1.8E-05  4.3E-06  7.4E-05
etot    7  N  N  1  U   -2714.10771645742  5.6E-06  0.0E+00  0.0E+00
scf (DFT) done.
der1a (1-e 1st deriv.) done.
rwr (1st deriv. Q) done.
der1b (2-e 1st deriv.) done.
  Geometry optimization step  3
  Total energy:     -2714.10771645742 hartrees
  energy change:          -1.6931E-02 .  (  5.0000E-05 )
  gradient maximum:        4.6343E-03 .  (  6.5000E-04 )
  gradient rms:            9.3874E-04 .  (  5.0000E-04 )
  displacement maximum:    1.1115E-01 .  (  1.8000E-03 )
  displacement rms:        1.8624E-02 .  (  1.2000E-03 )
  
  predicted energy change: -1.0581E-02
  step size:     0.50043
  trust radius:  0.50000
---------------- geometry iteration   3 complete ----------------
geopt (optimize geometry) done.
ch (properties) done.
impact (MM calculations) done.
onee (1-electron integrals) done.
probe (project orbitals) done.
grid (grid generation) done.
rwr (Q operators) done.
  
       i  u  d  i  g
       t  p  i  c  r                                 RMS    maximum
       e  d  i  u  i                       energy  density   DIIS  
       r  t  s  t  d       total energy    change  change    error 
  
etot    1  N  N  1  U   -2714.11213517512           7.4E-05  2.2E-03
etot    2  N  Y  1  U   -2714.11590433044  3.8E-03  3.5E-05  7.0E-04
etot    3  N  Y  1  U   -2714.11661125332  7.1E-04  1.9E-05  3.6E-04
etot    4  N  Y  1  U   -2714.11677994711  1.7E-04  1.1E-05  1.9E-04
etot    5  N  Y  1  U   -2714.11682289941  4.3E-05  6.3E-06  1.2E-04
etot    6  N  Y  1  U   -2714.11683566956  1.3E-05  3.7E-06  6.7E-05
etot    7  N  N  1  U   -2714.11684007320  4.4E-06  0.0E+00  0.0E+00
scf (DFT) done.
der1a (1-e 1st deriv.) done.
rwr (1st deriv. Q) done.
der1b (2-e 1st deriv.) done.
  Geometry optimization step  4
  Total energy:     -2714.11684007320 hartrees
  energy change:          -9.1236E-03 .  (  5.0000E-05 )
  gradient maximum:        1.0975E-02 .  (  6.5000E-04 )
  gradient rms:            1.0124E-03 .  (  5.0000E-04 )
  displacement maximum:    9.2697E-02 .  (  1.8000E-03 )
  displacement rms:        1.8618E-02 .  (  1.2000E-03 )
  
  predicted energy change: -8.4841E-03
  step size:     0.50026
  trust radius:  0.50000
---------------- geometry iteration   4 complete ----------------
geopt (optimize geometry) done.
ch (properties) done.
impact (MM calculations) done.
onee (1-electron integrals) done.
probe (project orbitals) done.
grid (grid generation) done.
rwr (Q operators) done.
  
       i  u  d  i  g
       t  p  i  c  r                                 RMS    maximum
       e  d  i  u  i                       energy  density   DIIS  
       r  t  s  t  d       total energy    change  change    error 
  
etot    1  N  N  1  U   -2714.12119072413           6.7E-05  2.1E-03
etot    2  N  Y  1  U   -2714.12445294107  3.3E-03  3.3E-05  7.7E-04
etot    3  N  Y  1  U   -2714.12508760613  6.3E-04  1.7E-05  3.7E-04
etot    4  N  Y  1  U   -2714.12522320015  1.4E-04  9.9E-06  2.1E-04
etot    5  N  Y  1  U   -2714.12526366458  4.0E-05  5.9E-06  1.2E-04
etot    6  N  Y  1  U   -2714.12527582653  1.2E-05  3.5E-06  7.1E-05
etot    7  N  N  1  U   -2714.12527986680  4.0E-06  0.0E+00  0.0E+00
scf (DFT) done.
der1a (1-e 1st deriv.) done.
rwr (1st deriv. Q) done.
der1b (2-e 1st deriv.) done.
  Geometry optimization step  5
  Total energy:     -2714.12527986680 hartrees
  energy change:          -8.4398E-03 .  (  5.0000E-05 )
  gradient maximum:        2.7257E-03 .  (  6.5000E-04 )
  gradient rms:            5.4292E-04 .  (  5.0000E-04 )
  displacement maximum:    9.6732E-02 .  (  1.8000E-03 )
  displacement rms:        1.8629E-02 .  (  1.2000E-03 )
  
  predicted energy change: -5.7928E-03
  step size:     0.50055
  trust radius:  0.50000
---------------- geometry iteration   5 complete ----------------
geopt (optimize geometry) done.
ch (properties) done.
impact (MM calculations) done.
onee (1-electron integrals) done.
probe (project orbitals) done.
grid (grid generation) done.
rwr (Q operators) done.
  
       i  u  d  i  g
       t  p  i  c  r                                 RMS    maximum
       e  d  i  u  i                       energy  density   DIIS  
       r  t  s  t  d       total energy    change  change    error 
  
etot    1  N  N  1  U   -2714.12842224984           6.3E-05  2.2E-03
etot    2  N  Y  1  U   -2714.13136821161  2.9E-03  3.1E-05  7.4E-04
etot    3  N  Y  1  U   -2714.13194947966  5.8E-04  1.7E-05  3.7E-04
etot    4  N  Y  1  U   -2714.13207506761  1.3E-04  9.6E-06  1.9E-04
etot    5  N  Y  1  U   -2714.13211235641  3.7E-05  5.7E-06  1.2E-04
etot    6  N  Y  1  U   -2714.13212389712  1.2E-05  3.4E-06  6.9E-05
etot    7  N  N  1  U   -2714.13212771335  3.8E-06  0.0E+00  0.0E+00
scf (DFT) done.
der1a (1-e 1st deriv.) done.
rwr (1st deriv. Q) done.
der1b (2-e 1st deriv.) done.
  Geometry optimization step  6
  Total energy:     -2714.13212771335 hartrees
  energy change:          -6.8478E-03 .  (  5.0000E-05 )
  gradient maximum:        2.5086E-03 .  (  6.5000E-04 )
  gradient rms:            4.6007E-04 *  (  5.0000E-04 )
  displacement maximum:    9.3908E-02 .  (  1.8000E-03 )
  displacement rms:        1.8606E-02 .  (  1.2000E-03 )
  
  predicted energy change: -5.4344E-03
  step size:     0.49994
  trust radius:  0.50000
---------------- geometry iteration   6 complete ----------------
geopt (optimize geometry) done.
ch (properties) done.
impact (MM calculations) done.
onee (1-electron integrals) done.
probe (project orbitals) done.
grid (grid generation) done.
rwr (Q operators) done.
  
       i  u  d  i  g
       t  p  i  c  r                                 RMS    maximum
       e  d  i  u  i                       energy  density   DIIS  
       r  t  s  t  d       total energy    change  change    error 
  
etot    1  N  N  1  U   -2714.13665909472           6.2E-05  2.3E-03
etot    2  N  Y  1  U   -2714.13948421845  2.8E-03  3.1E-05  8.0E-04
etot    3  N  Y  1  U   -2714.14004638050  5.6E-04  1.7E-05  3.3E-04
etot    4  N  Y  1  U   -2714.14016749067  1.2E-04  9.5E-06  1.7E-04
etot    5  N  Y  1  U   -2714.14020388548  3.6E-05  5.7E-06  1.0E-04
etot    6  N  Y  1  U   -2714.14021537275  1.1E-05  3.4E-06  6.1E-05
etot    7  N  N  1  U   -2714.14021935147  4.0E-06  0.0E+00  0.0E+00
scf (DFT) done.
der1a (1-e 1st deriv.) done.
rwr (1st deriv. Q) done.
der1b (2-e 1st deriv.) done.
  Geometry optimization step  7
  Total energy:     -2714.14021935147 hartrees
  energy change:          -8.0916E-03 .  (  5.0000E-05 )
  gradient maximum:        6.3016E-03 .  (  6.5000E-04 )
  gradient rms:            5.3304E-04 .  (  5.0000E-04 )
  displacement maximum:    8.4284E-02 .  (  1.8000E-03 )
  displacement rms:        1.8642E-02 .  (  1.2000E-03 )
  
  predicted energy change: -4.9380E-03
  step size:     0.50090
  trust radius:  0.50000
---------------- geometry iteration   7 complete ----------------
geopt (optimize geometry) done.
ch (properties) done.
impact (MM calculations) done.
onee (1-electron integrals) done.
probe (project orbitals) done.
grid (grid generation) done.
rwr (Q operators) done.
  
       i  u  d  i  g
       t  p  i  c  r                                 RMS    maximum
       e  d  i  u  i                       energy  density   DIIS  
       r  t  s  t  d       total energy    change  change    error 
  
etot    1  N  N  1  U   -2714.14196814269           6.0E-05  2.0E-03
etot    2  N  Y  1  U   -2714.14459714317  2.6E-03  2.9E-05  7.9E-04
etot    3  N  Y  1  U   -2714.14511505767  5.2E-04  1.6E-05  3.1E-04
etot    4  N  Y  1  U   -2714.14522741984  1.1E-04  9.3E-06  1.8E-04
etot    5  N  Y  1  U   -2714.14526150105  3.4E-05  5.5E-06  1.1E-04
etot    6  N  Y  1  U   -2714.14527189082  1.0E-05  3.3E-06  6.0E-05
etot    7  N  N  1  U   -2714.14527548019  3.6E-06  0.0E+00  0.0E+00
scf (DFT) done.
der1a (1-e 1st deriv.) done.
rwr (1st deriv. Q) done.
der1b (2-e 1st deriv.) done.
  Geometry optimization step  8
  Total energy:     -2714.14527548019 hartrees
  energy change:          -5.0561E-03 .  (  5.0000E-05 )
  gradient maximum:        2.4749E-03 .  (  6.5000E-04 )
  gradient rms:            3.9981E-04 *  (  5.0000E-04 )
  displacement maximum:    7.9801E-02 .  (  1.8000E-03 )
  displacement rms:        1.8607E-02 .  (  1.2000E-03 )
  
  predicted energy change: -4.3147E-03
  step size:     0.49996
  trust radius:  0.50000
---------------- geometry iteration   8 complete ----------------
geopt (optimize geometry) done.
ch (properties) done.
impact (MM calculations) done.
onee (1-electron integrals) done.
probe (project orbitals) done.
grid (grid generation) done.
rwr (Q operators) done.
  
       i  u  d  i  g
       t  p  i  c  r                                 RMS    maximum
       e  d  i  u  i                       energy  density   DIIS  
       r  t  s  t  d       total energy    change  change    error 
  
etot    1  N  N  1  U   -2714.14797362245           5.5E-05  1.9E-03
etot    2  N  Y  1  U   -2714.15025333799  2.3E-03  2.7E-05  6.5E-04
etot    3  N  Y  1  U   -2714.15070574944  4.5E-04  1.5E-05  2.6E-04
etot    4  N  Y  1  U   -2714.15080405771  9.8E-05  8.5E-06  1.5E-04
etot    5  N  Y  1  U   -2714.15083390509  3.0E-05  5.1E-06  9.0E-05
etot    6  N  Y  1  U   -2714.15084306611  9.2E-06  3.1E-06  5.0E-05
etot    7  N  N  1  U   -2714.15084630895  3.2E-06  0.0E+00  0.0E+00
scf (DFT) done.
der1a (1-e 1st deriv.) done.
rwr (1st deriv. Q) done.
der1b (2-e 1st deriv.) done.
  Geometry optimization step  9
  Total energy:     -2714.15084630895 hartrees
  energy change:          -5.5708E-03 .  (  5.0000E-05 )
  gradient maximum:        3.2051E-03 .  (  6.5000E-04 )
  gradient rms:            3.7027E-04 *  (  5.0000E-04 )
  displacement maximum:    8.7614E-02 .  (  1.8000E-03 )
  displacement rms:        1.8607E-02 .  (  1.2000E-03 )
  
  predicted energy change: -3.7719E-03
  step size:     0.49998
  trust radius:  0.50000
---------------- geometry iteration   9 complete ----------------
geopt (optimize geometry) done.
ch (properties) done.
impact (MM calculations) done.
onee (1-electron integrals) done.
probe (project orbitals) done.
grid (grid generation) done.
rwr (Q operators) done.
  
       i  u  d  i  g
       t  p  i  c  r                                 RMS    maximum
       e  d  i  u  i                       energy  density   DIIS  
       r  t  s  t  d       total energy    change  change    error 
  
etot    1  N  N  1  U   -2714.15366153816           4.6E-05  1.7E-03
etot    2  N  Y  1  U   -2714.15531415873  1.7E-03  2.2E-05  5.5E-04
etot    3  N  Y  1  U   -2714.15563914946  3.2E-04  1.2E-05  2.4E-04
etot    4  N  Y  1  U   -2714.15571011921  7.1E-05  7.0E-06  1.3E-04
etot    5  N  Y  1  U   -2714.15573071817  2.1E-05  4.2E-06  7.3E-05
etot    6  N  N  1  U   -2714.15573674809  6.0E-06  0.0E+00  0.0E+00
scf (DFT) done.
der1a (1-e 1st deriv.) done.
rwr (1st deriv. Q) done.
der1b (2-e 1st deriv.) done.
  Geometry optimization step 10
  Total energy:     -2714.15573674809 hartrees
  energy change:          -4.8904E-03 .  (  5.0000E-05 )
  gradient maximum:        5.2371E-03 .  (  6.5000E-04 )
  gradient rms:            5.7169E-04 .  (  5.0000E-04 )
  displacement maximum:    7.4638E-02 .  (  1.8000E-03 )
  displacement rms:        1.8626E-02 .  (  1.2000E-03 )
  
  predicted energy change: -3.4716E-03
  step size:     0.50048
  trust radius:  0.50000
---------------- geometry iteration  10 complete ----------------
geopt (optimize geometry) done.
ch (properties) done.
impact (MM calculations) done.
onee (1-electron integrals) done.
probe (project orbitals) done.
grid (grid generation) done.
rwr (Q operators) done.
  
       i  u  d  i  g
       t  p  i  c  r                                 RMS    maximum
       e  d  i  u  i                       energy  density   DIIS  
       r  t  s  t  d       total energy    change  change    error 
  
etot    1  N  N  1  U   -2714.16208707562           3.8E-05  1.7E-03
etot    2  N  Y  1  U   -2714.16333569966  1.2E-03  1.8E-05  5.4E-04
etot    3  N  Y  1  U   -2714.16357851264  2.4E-04  9.6E-06  2.3E-04
etot    4  N  Y  1  U   -2714.16362762271  4.9E-05  5.4E-06  1.2E-04
etot    5  N  Y  1  U   -2714.16364030512  1.3E-05  3.0E-06  7.3E-05
etot    6  N  N  1  U   -2714.16364368265  3.4E-06  0.0E+00  0.0E+00
scf (DFT) done.
der1a (1-e 1st deriv.) done.
rwr (1st deriv. Q) done.
der1b (2-e 1st deriv.) done.
  Geometry optimization step 11
  Total energy:     -2714.16364368265 hartrees
  energy change:          -7.9069E-03 .  (  5.0000E-05 )
  gradient maximum:        2.1881E-03 .  (  6.5000E-04 )
  gradient rms:            3.4847E-04 *  (  5.0000E-04 )
  displacement maximum:    1.0111E-01 .  (  1.8000E-03 )
  displacement rms:        1.8635E-02 .  (  1.2000E-03 )
  
  predicted energy change: -2.8584E-03
  step size:     0.50071
  trust radius:  0.50000
---------------- geometry iteration  11 complete ----------------
geopt (optimize geometry) done.
ch (properties) done.
impact (MM calculations) done.
onee (1-electron integrals) done.
probe (project orbitals) done.
grid (grid generation) done.
rwr (Q operators) done.
  
       i  u  d  i  g
       t  p  i  c  r                                 RMS    maximum
       e  d  i  u  i                       energy  density   DIIS  
       r  t  s  t  d       total energy    change  change    error 
  
etot    1  N  N  1  U   -2714.16597757642           3.5E-05  1.5E-03
etot    2  N  Y  1  U   -2714.16706501672  1.1E-03  1.7E-05  5.2E-04
etot    3  N  Y  1  U   -2714.16727353215  2.1E-04  9.2E-06  2.2E-04
etot    4  N  Y  1  U   -2714.16731478091  4.1E-05  5.2E-06  1.1E-04
etot    5  N  Y  1  U   -2714.16732561349  1.1E-05  2.9E-06  5.4E-05
etot    6  N  N  1  U   -2714.16732827816  2.7E-06  0.0E+00  0.0E+00
scf (DFT) done.
der1a (1-e 1st deriv.) done.
rwr (1st deriv. Q) done.
der1b (2-e 1st deriv.) done.
  Geometry optimization step 12
  Total energy:     -2714.16732827816 hartrees
  energy change:          -3.6846E-03 .  (  5.0000E-05 )
  gradient maximum:        4.9339E-03 .  (  6.5000E-04 )
  gradient rms:            3.8956E-04 *  (  5.0000E-04 )
  displacement maximum:    1.0035E-01 .  (  1.8000E-03 )
  displacement rms:        1.8608E-02 .  (  1.2000E-03 )
  
  predicted energy change: -2.7265E-03
  step size:     0.49999
  trust radius:  0.50000
---------------- geometry iteration  12 complete ----------------
geopt (optimize geometry) done.
ch (properties) done.
impact (MM calculations) done.
onee (1-electron integrals) done.
probe (project orbitals) done.
grid (grid generation) done.
rwr (Q operators) done.
  
       i  u  d  i  g
       t  p  i  c  r                                 RMS    maximum
       e  d  i  u  i                       energy  density   DIIS  
       r  t  s  t  d       total energy    change  change    error 
  
etot    1  N  N  1  U   -2714.16879238446           3.5E-05  1.2E-03
etot    2  N  Y  1  U   -2714.16987532210  1.1E-03  1.7E-05  5.2E-04
etot    3  N  Y  1  U   -2714.17008081794  2.1E-04  9.1E-06  2.3E-04
etot    4  N  Y  1  U   -2714.17012183100  4.1E-05  5.1E-06  1.2E-04
etot    5  N  Y  1  U   -2714.17013300055  1.1E-05  2.9E-06  7.4E-05
etot    6  N  N  1  U   -2714.17013589782  2.9E-06  0.0E+00  0.0E+00
scf (DFT) done.
der1a (1-e 1st deriv.) done.
rwr (1st deriv. Q) done.
der1b (2-e 1st deriv.) done.
  Geometry optimization step 13
  Total energy:     -2714.17013589782 hartrees
  energy change:          -2.8076E-03 .  (  5.0000E-05 )
  gradient maximum:        2.5388E-03 .  (  6.5000E-04 )
  gradient rms:            2.9425E-04 *  (  5.0000E-04 )
  displacement maximum:    9.9466E-02 .  (  1.8000E-03 )
  displacement rms:        1.8640E-02 .  (  1.2000E-03 )
  
  predicted energy change: -2.2920E-03
  step size:     0.50087
  trust radius:  0.50000
---------------- geometry iteration  13 complete ----------------
geopt (optimize geometry) done.
ch (properties) done.
impact (MM calculations) done.
onee (1-electron integrals) done.
probe (project orbitals) done.
grid (grid generation) done.
rwr (Q operators) done.
  
       i  u  d  i  g
       t  p  i  c  r                                 RMS    maximum
       e  d  i  u  i                       energy  density   DIIS  
       r  t  s  t  d       total energy    change  change    error 
  
etot    1  N  N  1  U   -2714.34190156360           3.7E-05  1.2E-03
etot    2  N  Y  1  U   -2714.34287992760  9.8E-04  1.7E-05  4.5E-04
etot    3  N  Y  1  U   -2714.34305744244  1.8E-04  9.0E-06  2.2E-04
etot    4  N  Y  1  U   -2714.34309845934  4.1E-05  5.0E-06  1.0E-04
etot    5  N  Y  1  U   -2714.34310786124  9.4E-06  2.8E-06  6.1E-05
etot    6  N  N  1  U   -2714.34311034018  2.5E-06  0.0E+00  0.0E+00
scf (DFT) done.
der1a (1-e 1st deriv.) done.
rwr (1st deriv. Q) done.
der1b (2-e 1st deriv.) done.
  Geometry optimization step 14
  Total energy:     -2714.34311034018 hartrees
  energy change:          -1.7297E-01 .  (  5.0000E-05 )
  gradient maximum:        6.3274E-03 .  (  6.5000E-04 )
  gradient rms:            4.6275E-04 *  (  5.0000E-04 )
  displacement maximum:    1.0262E-01 .  (  1.8000E-03 )
  displacement rms:        1.8637E-02 .  (  1.2000E-03 )
  
  predicted energy change: -2.5524E-03
  step size:     0.50079
  trust radius:  0.50000
---------------- geometry iteration  14 complete ----------------
geopt (optimize geometry) done.
ch (properties) done.
impact (MM calculations) done.
onee (1-electron integrals) done.
probe (project orbitals) done.
grid (grid generation) done.
rwr (Q operators) done.
  
       i  u  d  i  g
       t  p  i  c  r                                 RMS    maximum
       e  d  i  u  i                       energy  density   DIIS  
       r  t  s  t  d       total energy    change  change    error 
  
etot    1  N  N  1  U   -2714.38323620135           6.5E-05  2.4E-03
etot    2  N  Y  1  U   -2714.38481745409  1.6E-03  2.6E-05  6.0E-04
etot    3  N  Y  1  U   -2714.38506624371  2.5E-04  1.3E-05  5.6E-04
etot    4  N  Y  1  U   -2714.38514777083  8.2E-05  7.0E-06  1.5E-04
etot    5  N  Y  1  U   -2714.38516324763  1.5E-05  3.8E-06  1.3E-04
etot    6  N  N  1  U   -2714.38516784246  4.6E-06  0.0E+00  0.0E+00
scf (DFT) done.
der1a (1-e 1st deriv.) done.
rwr (1st deriv. Q) done.
der1b (2-e 1st deriv.) done.
  Geometry optimization step 15
  Total energy:     -2714.38516784246 hartrees
  energy change:          -4.2058E-02 .  (  5.0000E-05 )
  gradient maximum:        7.6901E-03 .  (  6.5000E-04 )
  gradient rms:            7.8167E-04 .  (  5.0000E-04 )
  displacement maximum:    2.1060E-01 .  (  1.8000E-03 )
  displacement rms:        1.8622E-02 .  (  1.2000E-03 )
  
  predicted energy change: -3.7296E-03
  step size:     0.50038
  trust radius:  0.50000
---------------- geometry iteration  15 complete ----------------
geopt (optimize geometry) done.
ch (properties) done.
impact (MM calculations) done.
onee (1-electron integrals) done.
probe (project orbitals) done.
grid (grid generation) done.
rwr (Q operators) done.
  
       i  u  d  i  g
       t  p  i  c  r                                 RMS    maximum
       e  d  i  u  i                       energy  density   DIIS  
       r  t  s  t  d       total energy    change  change    error 
  
etot    1  N  N  1  U   -2714.38944251662           3.8E-05  9.3E-04
etot    2  N  Y  1  U   -2714.39037345094  9.3E-04  1.7E-05  3.2E-04
etot    3  N  Y  1  U   -2714.39053607558  1.6E-04  8.9E-06  1.9E-04
etot    4  N  Y  1  U   -2714.39057514500  3.9E-05  4.9E-06  9.4E-05
etot    5  N  N  1  U   -2714.39058388399  8.7E-06  0.0E+00  0.0E+00
scf (DFT) done.
der1a (1-e 1st deriv.) done.
rwr (1st deriv. Q) done.
der1b (2-e 1st deriv.) done.
  Geometry optimization step 16
  Total energy:     -2714.39058388399 hartrees
  energy change:          -5.4160E-03 .  (  5.0000E-05 )
  gradient maximum:        1.2029E-02 .  (  6.5000E-04 )
  gradient rms:            1.1398E-03 .  (  5.0000E-04 )
  displacement maximum:    1.2954E-01 .  (  1.8000E-03 )
  displacement rms:        1.8607E-02 .  (  1.2000E-03 )
  
  predicted energy change: -4.4281E-03
  step size:     0.49998
  trust radius:  0.50000
---------------- geometry iteration  16 complete ----------------
geopt (optimize geometry) done.
ch (properties) done.
impact (MM calculations) done.
onee (1-electron integrals) done.
probe (project orbitals) done.
grid (grid generation) done.
rwr (Q operators) done.
  
       i  u  d  i  g
       t  p  i  c  r                                 RMS    maximum
       e  d  i  u  i                       energy  density   DIIS  
       r  t  s  t  d       total energy    change  change    error 
  
etot    1  N  N  1  U   -2714.39284545348           3.6E-05  1.6E-03
etot    2  N  Y  1  U   -2714.39391543730  1.1E-03  1.7E-05  8.7E-04
etot    3  N  Y  1  U   -2714.39411937813  2.0E-04  9.0E-06  5.2E-04
etot    4  N  Y  1  U   -2714.39416682909  4.7E-05  5.0E-06  2.8E-04
etot    5  N  Y  1  U   -2714.39417850286  1.2E-05  2.8E-06  1.7E-04
etot    6  N  N  1  U   -2714.39418196542  3.5E-06  0.0E+00  0.0E+00
scf (DFT) done.
der1a (1-e 1st deriv.) done.
rwr (1st deriv. Q) done.
der1b (2-e 1st deriv.) done.
  Geometry optimization step 17
  Total energy:     -2714.39418196542 hartrees
  energy change:          -3.5981E-03 .  (  5.0000E-05 )
  gradient maximum:        1.1735E-02 .  (  6.5000E-04 )
  gradient rms:            1.0259E-03 .  (  5.0000E-04 )
  displacement maximum:    1.4368E-01 .  (  1.8000E-03 )
  displacement rms:        1.8607E-02 .  (  1.2000E-03 )
  
  predicted energy change: -5.4122E-03
  step size:     0.49997
  trust radius:  0.50000
---------------- geometry iteration  17 complete ----------------
geopt (optimize geometry) done.
ch (properties) done.
impact (MM calculations) done.
onee (1-electron integrals) done.
probe (project orbitals) done.
grid (grid generation) done.
rwr (Q operators) done.
  
       i  u  d  i  g
       t  p  i  c  r                                 RMS    maximum
       e  d  i  u  i                       energy  density   DIIS  
       r  t  s  t  d       total energy    change  change    error 
  
etot    1  N  N  1  U   -2714.40461836815           3.1E-05  9.0E-04
etot    2  N  Y  1  U   -2714.40531622710  7.0E-04  1.4E-05  3.6E-04
etot    3  N  Y  1  U   -2714.40543851805  1.2E-04  7.3E-06  1.7E-04
etot    4  N  Y  1  U   -2714.40546647063  2.8E-05  4.1E-06  9.4E-05
etot    5  N  N  1  U   -2714.40547298080  6.5E-06  0.0E+00  0.0E+00
scf (DFT) done.
der1a (1-e 1st deriv.) done.
rwr (1st deriv. Q) done.
der1b (2-e 1st deriv.) done.
  Geometry optimization step 18
  Total energy:     -2714.40547298080 hartrees
  energy change:          -1.1291E-02 .  (  5.0000E-05 )
  gradient maximum:        5.5548E-03 .  (  6.5000E-04 )
  gradient rms:            6.8712E-04 .  (  5.0000E-04 )
  displacement maximum:    1.3577E-01 .  (  1.8000E-03 )
  displacement rms:        1.8611E-02 .  (  1.2000E-03 )
  
  predicted energy change: -3.5399E-03
  step size:     0.50008
  trust radius:  0.50000
---------------- geometry iteration  18 complete ----------------
geopt (optimize geometry) done.
ch (properties) done.
impact (MM calculations) done.
onee (1-electron integrals) done.
probe (project orbitals) done.
grid (grid generation) done.
rwr (Q operators) done.
  
       i  u  d  i  g
       t  p  i  c  r                                 RMS    maximum
       e  d  i  u  i                       energy  density   DIIS  
       r  t  s  t  d       total energy    change  change    error 
  
etot    1  N  N  1  U   -2714.40866141315           3.1E-05  1.1E-03
etot    2  N  Y  1  U   -2714.40939582253  7.3E-04  1.5E-05  4.5E-04
etot    3  N  Y  1  U   -2714.40953181201  1.4E-04  7.7E-06  2.6E-04
etot    4  N  Y  1  U   -2714.40956216278  3.0E-05  4.3E-06  1.5E-04
etot    5  N  N  1  U   -2714.40956970049  7.5E-06  0.0E+00  0.0E+00
scf (DFT) done.
der1a (1-e 1st deriv.) done.
rwr (1st deriv. Q) done.
der1b (2-e 1st deriv.) done.
  Geometry optimization step 19
  Total energy:     -2714.40956970049 hartrees
  energy change:          -4.0967E-03 .  (  5.0000E-05 )
  gradient maximum:        6.8114E-03 .  (  6.5000E-04 )
  gradient rms:            5.6937E-04 .  (  5.0000E-04 )
  displacement maximum:    1.6018E-01 .  (  1.8000E-03 )
  displacement rms:        1.8619E-02 .  (  1.2000E-03 )
  
  predicted energy change: -3.7019E-03
  step size:     0.50029
  trust radius:  0.50000
---------------- geometry iteration  19 complete ----------------
geopt (optimize geometry) done.
ch (properties) done.
impact (MM calculations) done.
onee (1-electron integrals) done.
probe (project orbitals) done.
grid (grid generation) done.
rwr (Q operators) done.
  
       i  u  d  i  g
       t  p  i  c  r                                 RMS    maximum
       e  d  i  u  i                       energy  density   DIIS  
       r  t  s  t  d       total energy    change  change    error 
  
etot    1  N  N  1  U   -2714.41613357299           3.0E-05  9.7E-04
etot    2  N  Y  1  U   -2714.41679847540  6.6E-04  1.4E-05  4.3E-04
etot    3  N  Y  1  U   -2714.41692039674  1.2E-04  7.5E-06  1.8E-04
etot    4  N  Y  1  U   -2714.41694937572  2.9E-05  4.3E-06  1.0E-04
etot    5  N  N  1  U   -2714.41695646837  7.1E-06  0.0E+00  0.0E+00
scf (DFT) done.
der1a (1-e 1st deriv.) done.
rwr (1st deriv. Q) done.
der1b (2-e 1st deriv.) done.
  Geometry optimization step 20
  Total energy:     -2714.41695646837 hartrees
  energy change:          -7.3868E-03 .  (  5.0000E-05 )
  gradient maximum:        8.4321E-03 .  (  6.5000E-04 )
  gradient rms:            1.0692E-03 .  (  5.0000E-04 )
  displacement maximum:    1.3023E-01 .  (  1.8000E-03 )
  displacement rms:        1.8608E-02 .  (  1.2000E-03 )
  
  predicted energy change: -4.2667E-03
  step size:     0.50000
  trust radius:  0.50000
---------------- geometry iteration  20 complete ----------------
geopt (optimize geometry) done.
ch (properties) done.
impact (MM calculations) done.
onee (1-electron integrals) done.
probe (project orbitals) done.
grid (grid generation) done.
rwr (Q operators) done.
  
       i  u  d  i  g
       t  p  i  c  r                                 RMS    maximum
       e  d  i  u  i                       energy  density   DIIS  
       r  t  s  t  d       total energy    change  change    error 
  
etot    1  N  N  1  U   -2714.42118891696           2.9E-05  1.4E-03
etot    2  N  Y  1  U   -2714.42186886749  6.8E-04  1.4E-05  4.9E-04
etot    3  N  Y  1  U   -2714.42199545521  1.3E-04  7.4E-06  1.9E-04
etot    4  N  Y  1  U   -2714.42202154252  2.6E-05  4.2E-06  9.1E-05
etot    5  N  N  1  U   -2714.42202838134  6.8E-06  0.0E+00  0.0E+00
scf (DFT) done.
der1a (1-e 1st deriv.) done.
rwr (1st deriv. Q) done.
der1b (2-e 1st deriv.) done.
  Geometry optimization step 21
  Total energy:     -2714.42202838134 hartrees
  energy change:          -5.0719E-03 .  (  5.0000E-05 )
  gradient maximum:        3.4051E-03 .  (  6.5000E-04 )
  gradient rms:            4.2354E-04 *  (  5.0000E-04 )
  displacement maximum:    9.9165E-02 .  (  1.8000E-03 )
  displacement rms:        1.8614E-02 .  (  1.2000E-03 )
  
  predicted energy change: -3.1005E-03
  step size:     0.50017
  trust radius:  0.50000
---------------- geometry iteration  21 complete ----------------
geopt (optimize geometry) done.
ch (properties) done.
impact (MM calculations) done.
onee (1-electron integrals) done.
probe (project orbitals) done.
grid (grid generation) done.
rwr (Q operators) done.
  
       i  u  d  i  g
       t  p  i  c  r                                 RMS    maximum
       e  d  i  u  i                       energy  density   DIIS  
       r  t  s  t  d       total energy    change  change    error 
  
etot    1  N  N  1  U   -2714.42104347547           3.6E-05  1.6E-03
etot    2  N  Y  1  U   -2714.42197088692  9.3E-04  1.6E-05  4.8E-04
etot    3  N  Y  1  U   -2714.42212862801  1.6E-04  8.7E-06  1.9E-04
etot    4  N  Y  1  U   -2714.42216334304  3.5E-05  5.0E-06  1.2E-04
etot    5  N  N  1  U   -2714.42217305762  9.7E-06  0.0E+00  0.0E+00
scf (DFT) done.
der1a (1-e 1st deriv.) done.
rwr (1st deriv. Q) done.
der1b (2-e 1st deriv.) done.
  Geometry optimization step 22
  Total energy:     -2714.42217305762 hartrees
  energy change:          -1.4468E-04 .  (  5.0000E-05 )
  gradient maximum:        8.5386E-03 .  (  6.5000E-04 )
  gradient rms:            9.2545E-04 .  (  5.0000E-04 )
  displacement maximum:    1.2885E-01 .  (  1.8000E-03 )
  displacement rms:        1.8639E-02 .  (  1.2000E-03 )
  
  predicted energy change: -3.6524E-03
  step size:     0.50084
  trust radius:  0.50000
---------------- geometry iteration  22 complete ----------------
geopt (optimize geometry) done.
ch (properties) done.
impact (MM calculations) done.
onee (1-electron integrals) done.
probe (project orbitals) done.
grid (grid generation) done.
rwr (Q operators) done.
  
       i  u  d  i  g
       t  p  i  c  r                                 RMS    maximum
       e  d  i  u  i                       energy  density   DIIS  
       r  t  s  t  d       total energy    change  change    error 
  
etot    1  N  N  1  U   -2714.42609787533           2.7E-05  1.2E-03
etot    2  N  Y  1  U   -2714.42670175413  6.0E-04  1.3E-05  4.6E-04
etot    3  N  Y  1  U   -2714.42680843991  1.1E-04  6.8E-06  1.8E-04
etot    4  N  Y  1  U   -2714.42682974545  2.1E-05  3.8E-06  9.8E-05
etot    5  N  N  1  U   -2714.42683547705  5.7E-06  0.0E+00  0.0E+00
scf (DFT) done.
der1a (1-e 1st deriv.) done.
rwr (1st deriv. Q) done.
der1b (2-e 1st deriv.) done.
  Geometry optimization step 23
  Total energy:     -2714.42683547705 hartrees
  energy change:          -4.6624E-03 .  (  5.0000E-05 )
  gradient maximum:        4.3846E-03 .  (  6.5000E-04 )
  gradient rms:            4.1978E-04 *  (  5.0000E-04 )
  displacement maximum:    1.1580E-01 .  (  1.8000E-03 )
  displacement rms:        1.8620E-02 .  (  1.2000E-03 )
  
  predicted energy change: -2.8719E-03
  step size:     0.50032
  trust radius:  0.50000
---------------- geometry iteration  23 complete ----------------
geopt (optimize geometry) done.
ch (properties) done.
impact (MM calculations) done.
onee (1-electron integrals) done.
probe (project orbitals) done.
grid (grid generation) done.
rwr (Q operators) done.
  
       i  u  d  i  g
       t  p  i  c  r                                 RMS    maximum
       e  d  i  u  i                       energy  density   DIIS  
       r  t  s  t  d       total energy    change  change    error 
  
etot    1  N  N  1  U   -2714.42626007400           3.1E-05  1.3E-03
etot    2  N  Y  1  U   -2714.42698465909  7.2E-04  1.4E-05  4.7E-04
etot    3  N  Y  1  U   -2714.42711022561  1.3E-04  8.1E-06  2.5E-04
etot    4  N  Y  1  U   -2714.42713938920  2.9E-05  4.8E-06  1.3E-04
etot    5  N  N  1  U   -2714.42714847616  9.1E-06  0.0E+00  0.0E+00
scf (DFT) done.
der1a (1-e 1st deriv.) done.
rwr (1st deriv. Q) done.
der1b (2-e 1st deriv.) done.
  Geometry optimization step 24
  Total energy:     -2714.42714847616 hartrees
  energy change:          -3.1300E-04 .  (  5.0000E-05 )
  gradient maximum:        1.0745E-02 .  (  6.5000E-04 )
  gradient rms:            9.5955E-04 .  (  5.0000E-04 )
  displacement maximum:    1.0913E-01 .  (  1.8000E-03 )
  displacement rms:        1.8611E-02 .  (  1.2000E-03 )
  
  predicted energy change: -3.6968E-03
  step size:     0.50009
  trust radius:  0.50000
---------------- geometry iteration  24 complete ----------------
geopt (optimize geometry) done.
ch (properties) done.
impact (MM calculations) done.
onee (1-electron integrals) done.
probe (project orbitals) done.
grid (grid generation) done.
rwr (Q operators) done.
  
       i  u  d  i  g
       t  p  i  c  r                                 RMS    maximum
       e  d  i  u  i                       energy  density   DIIS  
       r  t  s  t  d       total energy    change  change    error 
  
etot    1  N  N  1  U   -2714.42967524589           3.0E-05  1.2E-03
etot    2  N  Y  1  U   -2714.43044297885  7.7E-04  1.4E-05  4.5E-04
etot    3  N  Y  1  U   -2714.43058729622  1.4E-04  7.7E-06  1.7E-04
etot    4  N  Y  1  U   -2714.43061605123  2.9E-05  4.3E-06  9.7E-05
etot    5  N  N  1  U   -2714.43062375278  7.7E-06  0.0E+00  0.0E+00
scf (DFT) done.
der1a (1-e 1st deriv.) done.
rwr (1st deriv. Q) done.
der1b (2-e 1st deriv.) done.
  Geometry optimization step 25
  Total energy:     -2714.43062375278 hartrees
  energy change:          -3.4753E-03 .  (  5.0000E-05 )
  gradient maximum:        4.1698E-03 .  (  6.5000E-04 )
  gradient rms:            3.9385E-04 *  (  5.0000E-04 )
  displacement maximum:    1.2060E-01 .  (  1.8000E-03 )
  displacement rms:        1.8625E-02 .  (  1.2000E-03 )
  
  predicted energy change: -2.8034E-03
  step size:     0.50045
  trust radius:  0.50000
---------------- geometry iteration  25 complete ----------------
geopt (optimize geometry) done.
ch (properties) done.
impact (MM calculations) done.
onee (1-electron integrals) done.
probe (project orbitals) done.
grid (grid generation) done.
rwr (Q operators) done.
  
       i  u  d  i  g
       t  p  i  c  r                                 RMS    maximum
       e  d  i  u  i                       energy  density   DIIS  
       r  t  s  t  d       total energy    change  change    error 
  
etot    1  N  N  1  U   -2714.42973988252           3.0E-05  1.3E-03
etot    2  N  Y  1  U   -2714.43043606393  7.0E-04  1.4E-05  4.8E-04
etot    3  N  Y  1  U   -2714.43055460497  1.2E-04  7.6E-06  1.6E-04
etot    4  N  Y  1  U   -2714.43058052666  2.6E-05  4.4E-06  1.0E-04
etot    5  N  N  1  U   -2714.43058814993  7.6E-06  0.0E+00  0.0E+00
scf (DFT) done.
der1a (1-e 1st deriv.) done.
rwr (1st deriv. Q) done.
der1b (2-e 1st deriv.) done.
  Geometry optimization step 26
  Total energy:     -2714.43058814993 hartrees
  energy change:           3.5603E-05 *  (  5.0000E-05 )
  gradient maximum:        1.1044E-02 .  (  6.5000E-04 )
  gradient rms:            9.6335E-04 .  (  5.0000E-04 )
  displacement maximum:    1.0102E-01 .  (  1.8000E-03 )
  displacement rms:        1.8608E-02 .  (  1.2000E-03 )
  
  predicted energy change: -3.6129E-03
  step size:     0.49999
  trust radius:  0.50000
---------------- geometry iteration  26 complete ----------------
geopt (optimize geometry) done.
ch (properties) done.
impact (MM calculations) done.
onee (1-electron integrals) done.
probe (project orbitals) done.
grid (grid generation) done.
rwr (Q operators) done.
  
       i  u  d  i  g
       t  p  i  c  r                                 RMS    maximum
       e  d  i  u  i                       energy  density   DIIS  
       r  t  s  t  d       total energy    change  change    error 
  
etot    1  N  N  1  U   -2714.43262554613           3.0E-05  1.3E-03
etot    2  N  Y  1  U   -2714.43341100344  7.9E-04  1.5E-05  5.1E-04
etot    3  N  Y  1  U   -2714.43356201896  1.5E-04  7.9E-06  1.8E-04
etot    4  N  Y  1  U   -2714.43359289500  3.1E-05  4.5E-06  9.1E-05
etot    5  N  N  1  U   -2714.43360113646  8.2E-06  0.0E+00  0.0E+00
scf (DFT) done.
der1a (1-e 1st deriv.) done.
rwr (1st deriv. Q) done.
der1b (2-e 1st deriv.) done.
  Geometry optimization step 27
  Total energy:     -2714.43360113646 hartrees
  energy change:          -3.0130E-03 .  (  5.0000E-05 )
  gradient maximum:        8.3538E-03 .  (  6.5000E-04 )
  gradient rms:            5.3596E-04 .  (  5.0000E-04 )
  displacement maximum:    1.5198E-01 .  (  1.8000E-03 )
  displacement rms:        1.8609E-02 .  (  1.2000E-03 )
  
  predicted energy change: -3.3283E-03
  step size:     0.50002
  trust radius:  0.50000
---------------- geometry iteration  27 complete ----------------
geopt (optimize geometry) done.
ch (properties) done.
impact (MM calculations) done.
onee (1-electron integrals) done.
probe (project orbitals) done.
grid (grid generation) done.
rwr (Q operators) done.
  
       i  u  d  i  g
       t  p  i  c  r                                 RMS    maximum
       e  d  i  u  i                       energy  density   DIIS  
       r  t  s  t  d       total energy    change  change    error 
  
etot    1  N  N  1  U   -2714.43324283273           2.5E-05  1.1E-03
etot    2  N  Y  1  U   -2714.43371658797  4.7E-04  1.2E-05  3.9E-04
etot    3  N  Y  1  U   -2714.43380245188  8.6E-05  6.7E-06  1.7E-04
etot    4  N  Y  1  U   -2714.43382247415  2.0E-05  3.9E-06  1.0E-04
etot    5  N  N  1  U   -2714.43382825712  5.8E-06  0.0E+00  0.0E+00
scf (DFT) done.
der1a (1-e 1st deriv.) done.
rwr (1st deriv. Q) done.
der1b (2-e 1st deriv.) done.
  Geometry optimization step 28
  Total energy:     -2714.43382825712 hartrees
  energy change:          -2.2712E-04 .  (  5.0000E-05 )
  gradient maximum:        9.0454E-03 .  (  6.5000E-04 )
  gradient rms:            8.1036E-04 .  (  5.0000E-04 )
  displacement maximum:    1.1371E-01 .  (  1.8000E-03 )
  displacement rms:        1.8638E-02 .  (  1.2000E-03 )
  
  predicted energy change: -3.2984E-03
  step size:     0.50079
  trust radius:  0.50000
---------------- geometry iteration  28 complete ----------------
geopt (optimize geometry) done.
ch (properties) done.
impact (MM calculations) done.
onee (1-electron integrals) done.
probe (project orbitals) done.
grid (grid generation) done.
rwr (Q operators) done.
  
       i  u  d  i  g
       t  p  i  c  r                                 RMS    maximum
       e  d  i  u  i                       energy  density   DIIS  
       r  t  s  t  d       total energy    change  change    error 
  
etot    1  N  N  1  U   -2714.43464714626           3.2E-05  1.2E-03
etot    2  N  Y  1  U   -2714.43549503720  8.5E-04  1.4E-05  4.4E-04
etot    3  N  Y  1  U   -2714.43564211019  1.5E-04  7.9E-06  2.3E-04
etot    4  N  Y  1  U   -2714.43567238075  3.0E-05  4.5E-06  1.4E-04
etot    5  N  N  1  U   -2714.43568080420  8.4E-06  0.0E+00  0.0E+00
scf (DFT) done.
der1a (1-e 1st deriv.) done.
rwr (1st deriv. Q) done.
der1b (2-e 1st deriv.) done.
  Geometry optimization step 29
  Total energy:     -2714.43568080420 hartrees
  energy change:          -1.8525E-03 .  (  5.0000E-05 )
  gradient maximum:        1.0049E-02 .  (  6.5000E-04 )
  gradient rms:            7.0269E-04 .  (  5.0000E-04 )
  displacement maximum:    1.6161E-01 .  (  1.8000E-03 )
  displacement rms:        1.8607E-02 .  (  1.2000E-03 )
  
  predicted energy change: -3.2457E-03
  step size:     0.49997
  trust radius:  0.50000
---------------- geometry iteration  29 complete ----------------
geopt (optimize geometry) done.
ch (properties) done.
impact (MM calculations) done.
onee (1-electron integrals) done.
probe (project orbitals) done.
grid (grid generation) done.
rwr (Q operators) done.
  
       i  u  d  i  g
       t  p  i  c  r                                 RMS    maximum
       e  d  i  u  i                       energy  density   DIIS  
       r  t  s  t  d       total energy    change  change    error 
  
etot    1  N  N  1  U   -2714.43512604541           2.5E-05  1.4E-03
etot    2  N  Y  1  U   -2714.43564930462  5.2E-04  1.2E-05  5.1E-04
etot    3  N  Y  1  U   -2714.43574471509  9.5E-05  6.6E-06  1.7E-04
etot    4  N  Y  1  U   -2714.43576505135  2.0E-05  3.8E-06  1.1E-04
etot    5  N  N  1  U   -2714.43577094492  5.9E-06  0.0E+00  0.0E+00
scf (DFT) done.
der1a (1-e 1st deriv.) done.
rwr (1st deriv. Q) done.
der1b (2-e 1st deriv.) done.
  Geometry optimization step 30
  Total energy:     -2714.43577094492 hartrees
  energy change:          -9.0141E-05 .  (  5.0000E-05 )
  gradient maximum:        1.2357E-02 .  (  6.5000E-04 )
  gradient rms:            9.3461E-04 .  (  5.0000E-04 )
  displacement maximum:    1.9193E-01 .  (  1.8000E-03 )
  displacement rms:        1.8607E-02 .  (  1.2000E-03 )
  
  predicted energy change: -3.6615E-03
  step size:     0.49997
  trust radius:  0.50000
---------------- geometry iteration  30 complete ----------------
geopt (optimize geometry) done.
ch (properties) done.
impact (MM calculations) done.
onee (1-electron integrals) done.
probe (project orbitals) done.
grid (grid generation) done.
rwr (Q operators) done.
  
       i  u  d  i  g
       t  p  i  c  r                                 RMS    maximum
       e  d  i  u  i                       energy  density   DIIS  
       r  t  s  t  d       total energy    change  change    error 
  
etot    1  N  N  1  U   -2714.43652429011           2.7E-05  1.4E-03
etot    2  N  Y  1  U   -2714.43710892554  5.8E-04  1.3E-05  5.4E-04
etot    3  N  Y  1  U   -2714.43721344890  1.0E-04  7.0E-06  1.9E-04
etot    4  N  Y  1  U   -2714.43723526842  2.2E-05  4.0E-06  1.1E-04
etot    5  N  N  1  U   -2714.43724165374  6.4E-06  0.0E+00  0.0E+00
scf (DFT) done.
der1a (1-e 1st deriv.) done.
rwr (1st deriv. Q) done.
der1b (2-e 1st deriv.) done.
  Geometry optimization step 31
  Total energy:     -2714.43724165374 hartrees
  energy change:          -1.4707E-03 .  (  5.0000E-05 )
  gradient maximum:        9.7349E-03 .  (  6.5000E-04 )
  gradient rms:            7.3557E-04 .  (  5.0000E-04 )
  displacement maximum:    1.6137E-01 .  (  1.8000E-03 )
  displacement rms:        1.8606E-02 .  (  1.2000E-03 )
  
  predicted energy change: -4.4291E-03
  step size:     0.49995
  trust radius:  0.50000
---------------- geometry iteration  31 complete ----------------
geopt (optimize geometry) done.
ch (properties) done.
impact (MM calculations) done.
onee (1-electron integrals) done.
probe (project orbitals) done.
grid (grid generation) done.
rwr (Q operators) done.
  
       i  u  d  i  g
       t  p  i  c  r                                 RMS    maximum
       e  d  i  u  i                       energy  density   DIIS  
       r  t  s  t  d       total energy    change  change    error 
  
etot    1  N  N  1  U   -2714.43551939327           2.1E-05  1.1E-03
etot    2  N  Y  1  U   -2714.43586640019  3.5E-04  9.8E-06  4.0E-04
etot    3  N  Y  1  U   -2714.43593015240  6.4E-05  5.4E-06  1.6E-04
etot    4  N  Y  1  U   -2714.43594455982  1.4E-05  3.1E-06  9.9E-05
etot    5  N  N  1  U   -2714.43594873865  4.2E-06  0.0E+00  0.0E+00
scf (DFT) done.
der1a (1-e 1st deriv.) done.
rwr (1st deriv. Q) done.
der1b (2-e 1st deriv.) done.
  Geometry optimization step 32
  Total energy:     -2714.43594873865 hartrees
  ** restarting optimization from step   31 **
  energy change:           1.2929E-03 .  (  5.0000E-05 )
  gradient maximum:        9.7349E-03 .  (  6.5000E-04 )
  gradient rms:            7.3557E-04 .  (  5.0000E-04 )
  displacement maximum:    1.3786E-01 .  (  1.8000E-03 )
  displacement rms:        1.8608E-02 .  (  1.2000E-03 )
  
  predicted energy change: -3.6359E-03
  step size:     0.49999
  trust radius:  0.50000
---------------- geometry iteration  32 complete ----------------
geopt (optimize geometry) done.
ch (properties) done.
impact (MM calculations) done.
onee (1-electron integrals) done.
probe (project orbitals) done.
grid (grid generation) done.
rwr (Q operators) done.
  
       i  u  d  i  g
       t  p  i  c  r                                 RMS    maximum
       e  d  i  u  i                       energy  density   DIIS  
       r  t  s  t  d       total energy    change  change    error 
  
etot    1  N  N  1  U   -2714.43983391940           2.3E-05  2.3E-03
etot    2  N  Y  1  U   -2714.44026837289  4.3E-04  1.1E-05  7.6E-04
etot    3  N  Y  1  U   -2714.44035934170  9.1E-05  6.0E-06  2.8E-04
etot    4  N  Y  1  U   -2714.44037842896  1.9E-05  3.4E-06  1.2E-04
etot    5  N  N  1  U   -2714.44038372166  5.3E-06  0.0E+00  0.0E+00
scf (DFT) done.
der1a (1-e 1st deriv.) done.
rwr (1st deriv. Q) done.
der1b (2-e 1st deriv.) done.
  Geometry optimization step 33
  Total energy:     -2714.44038372166 hartrees
  energy change:          -3.1421E-03 .  (  5.0000E-05 )
  gradient maximum:        1.1312E-02 .  (  6.5000E-04 )
  gradient rms:            9.8828E-04 .  (  5.0000E-04 )
  displacement maximum:    1.6888E-01 .  (  1.8000E-03 )
  displacement rms:        1.8622E-02 .  (  1.2000E-03 )
  
  predicted energy change: -5.9924E-03
  step size:     0.50038
  trust radius:  0.50000
---------------- geometry iteration  33 complete ----------------
geopt (optimize geometry) done.
ch (properties) done.
impact (MM calculations) done.
onee (1-electron integrals) done.
probe (project orbitals) done.
grid (grid generation) done.
rwr (Q operators) done.
  
       i  u  d  i  g
       t  p  i  c  r                                 RMS    maximum
       e  d  i  u  i                       energy  density   DIIS  
       r  t  s  t  d       total energy    change  change    error 
  
etot    1  N  N  1  U   -2714.43831337115           2.2E-05  1.4E-03
etot    2  N  Y  1  U   -2714.43864813586  3.3E-04  9.5E-06  4.0E-04
etot    3  N  Y  1  U   -2714.43870698653  5.9E-05  5.1E-06  1.6E-04
etot    4  N  Y  1  U   -2714.43872056420  1.4E-05  3.0E-06  8.5E-05
etot    5  N  N  1  U   -2714.43872433442  3.8E-06  0.0E+00  0.0E+00
scf (DFT) done.
der1a (1-e 1st deriv.) done.
rwr (1st deriv. Q) done.
der1b (2-e 1st deriv.) done.
  Geometry optimization step 34
  Total energy:     -2714.43872433442 hartrees
  ** restarting optimization from step   33 **
  energy change:           1.6594E-03 .  (  5.0000E-05 )
  gradient maximum:        1.1312E-02 .  (  6.5000E-04 )
  gradient rms:            9.8828E-04 .  (  5.0000E-04 )
  displacement maximum:    8.4663E-02 .  (  1.8000E-03 )
  displacement rms:        9.3067E-03 .  (  1.2000E-03 )
  
  predicted energy change: -3.0512E-03
  step size:     0.25007
  trust radius:  0.25000
---------------- geometry iteration  34 complete ----------------
geopt (optimize geometry) done.
ch (properties) done.
impact (MM calculations) done.
onee (1-electron integrals) done.
probe (project orbitals) done.
grid (grid generation) done.
rwr (Q operators) done.
  
       i  u  d  i  g
       t  p  i  c  r                                 RMS    maximum
       e  d  i  u  i                       energy  density   DIIS  
       r  t  s  t  d       total energy    change  change    error 
  
etot    1  N  N  1  U   -2714.44384483581           1.2E-05  8.9E-04
etot    2  N  Y  1  U   -2714.44394330580  9.8E-05  5.1E-06  2.7E-04
etot    3  N  Y  1  U   -2714.44396019232  1.7E-05  2.5E-06  1.3E-04
etot    4  N  N  1  U   -2714.44396378952  3.6E-06  0.0E+00  0.0E+00
scf (DFT) done.
der1a (1-e 1st deriv.) done.
rwr (1st deriv. Q) done.
der1b (2-e 1st deriv.) done.
  Geometry optimization step 35
  Total energy:     -2714.44396378952 hartrees
  energy change:          -3.5801E-03 .  (  5.0000E-05 )
  gradient maximum:        5.9703E-03 .  (  6.5000E-04 )
  gradient rms:            3.8594E-04 *  (  5.0000E-04 )
  displacement maximum:    7.6101E-02 .  (  1.8000E-03 )
  displacement rms:        1.3159E-02 .  (  1.2000E-03 )
  
  predicted energy change: -1.4329E-03
  step size:     0.35358
  trust radius:  0.35355
---------------- geometry iteration  35 complete ----------------
geopt (optimize geometry) done.
ch (properties) done.
impact (MM calculations) done.
onee (1-electron integrals) done.
probe (project orbitals) done.
grid (grid generation) done.
rwr (Q operators) done.
  
       i  u  d  i  g
       t  p  i  c  r                                 RMS    maximum
       e  d  i  u  i                       energy  density   DIIS  
       r  t  s  t  d       total energy    change  change    error 
  
etot    1  N  N  1  U   -2714.44491554510           2.8E-05  1.6E-03
etot    2  N  Y  1  U   -2714.44558824325  6.7E-04  1.3E-05  6.5E-04
etot    3  N  Y  1  U   -2714.44570689981  1.2E-04  6.7E-06  3.7E-04
etot    4  N  Y  1  U   -2714.44573170577  2.5E-05  3.7E-06  2.0E-04
etot    5  N  N  1  U   -2714.44573887828  7.2E-06  0.0E+00  0.0E+00
scf (DFT) done.
der1a (1-e 1st deriv.) done.
rwr (1st deriv. Q) done.
der1b (2-e 1st deriv.) done.
  Geometry optimization step 36
  Total energy:     -2714.44573887828 hartrees
  energy change:          -1.7751E-03 .  (  5.0000E-05 )
  gradient maximum:        3.8540E-03 .  (  6.5000E-04 )
  gradient rms:            3.5527E-04 *  (  5.0000E-04 )
  displacement maximum:    7.5178E-02 .  (  1.8000E-03 )
  displacement rms:        1.3160E-02 .  (  1.2000E-03 )
  
  predicted energy change: -1.2201E-03
  step size:     0.35361
  trust radius:  0.35355
---------------- geometry iteration  36 complete ----------------
geopt (optimize geometry) done.
ch (properties) done.
impact (MM calculations) done.
onee (1-electron integrals) done.
probe (project orbitals) done.
grid (grid generation) done.
rwr (Q operators) done.
  
       i  u  d  i  g
       t  p  i  c  r                                 RMS    maximum
       e  d  i  u  i                       energy  density   DIIS  
       r  t  s  t  d       total energy    change  change    error 
  
etot    1  N  N  1  U   -2714.44640276806           2.7E-05  1.2E-03
etot    2  N  Y  1  U   -2714.44693235828  5.3E-04  1.2E-05  4.6E-04
etot    3  N  Y  1  U   -2714.44702953875  9.7E-05  6.7E-06  1.8E-04
etot    4  N  Y  1  U   -2714.44704997840  2.0E-05  3.8E-06  1.0E-04
etot    5  N  N  1  U   -2714.44705605583  6.1E-06  0.0E+00  0.0E+00
scf (DFT) done.
der1a (1-e 1st deriv.) done.
rwr (1st deriv. Q) done.
der1b (2-e 1st deriv.) done.
  Geometry optimization step 37
  Total energy:     -2714.44705605583 hartrees
  energy change:          -1.3172E-03 .  (  5.0000E-05 )
  gradient maximum:        1.6195E-03 .  (  6.5000E-04 )
  gradient rms:            2.0484E-04 *  (  5.0000E-04 )
  displacement maximum:    1.1121E-01 .  (  1.8000E-03 )
  displacement rms:        1.8623E-02 .  (  1.2000E-03 )
  
  predicted energy change: -1.2741E-03
  step size:     0.50041
  trust radius:  0.50000
---------------- geometry iteration  37 complete ----------------
geopt (optimize geometry) done.
ch (properties) done.
impact (MM calculations) done.
onee (1-electron integrals) done.
probe (project orbitals) done.
grid (grid generation) done.
rwr (Q operators) done.
  
       i  u  d  i  g
       t  p  i  c  r                                 RMS    maximum
       e  d  i  u  i                       energy  density   DIIS  
       r  t  s  t  d       total energy    change  change    error 
  
etot    1  N  N  1  U   -2714.44711440862           3.5E-05  2.4E-03
etot    2  N  Y  1  U   -2714.44811929477  1.0E-03  1.7E-05  9.2E-04
etot    3  N  Y  1  U   -2714.44830078836  1.8E-04  9.1E-06  2.8E-04
etot    4  N  Y  1  U   -2714.44833846112  3.8E-05  5.2E-06  1.2E-04
etot    5  N  Y  1  U   -2714.44834899379  1.1E-05  2.9E-06  6.0E-05
etot    6  N  N  1  U   -2714.44835183606  2.8E-06  0.0E+00  0.0E+00
scf (DFT) done.
der1a (1-e 1st deriv.) done.
rwr (1st deriv. Q) done.
der1b (2-e 1st deriv.) done.
  Geometry optimization step 38
  Total energy:     -2714.44835183606 hartrees
  energy change:          -1.2958E-03 .  (  5.0000E-05 )
  gradient maximum:        3.0333E-03 .  (  6.5000E-04 )
  gradient rms:            3.5916E-04 *  (  5.0000E-04 )
  displacement maximum:    1.1297E-01 .  (  1.8000E-03 )
  displacement rms:        1.8619E-02 .  (  1.2000E-03 )
  
  predicted energy change: -1.3607E-03
  step size:     0.50029
  trust radius:  0.50000
---------------- geometry iteration  38 complete ----------------
geopt (optimize geometry) done.
ch (properties) done.
impact (MM calculations) done.
onee (1-electron integrals) done.
probe (project orbitals) done.
grid (grid generation) done.
rwr (Q operators) done.
  
       i  u  d  i  g
       t  p  i  c  r                                 RMS    maximum
       e  d  i  u  i                       energy  density   DIIS  
       r  t  s  t  d       total energy    change  change    error 
  
etot    1  N  N  1  U   -2714.46283206103           3.4E-05  2.6E-03
etot    2  N  Y  1  U   -2714.46379376483  9.6E-04  1.8E-05  1.1E-03
etot    3  N  Y  1  U   -2714.46399766923  2.0E-04  9.5E-06  3.1E-04
etot    4  N  Y  1  U   -2714.46403923837  4.2E-05  5.4E-06  1.3E-04
etot    5  N  Y  1  U   -2714.46405015460  1.1E-05  3.0E-06  6.4E-05
etot    6  N  N  1  U   -2714.46405328746  3.1E-06  0.0E+00  0.0E+00
scf (DFT) done.
der1a (1-e 1st deriv.) done.
rwr (1st deriv. Q) done.
der1b (2-e 1st deriv.) done.
  Geometry optimization step 39
  Total energy:     -2714.46405328746 hartrees
  energy change:          -1.5701E-02 .  (  5.0000E-05 )
  gradient maximum:        2.6147E-03 .  (  6.5000E-04 )
  gradient rms:            2.5852E-04 *  (  5.0000E-04 )
  displacement maximum:    1.1504E-01 .  (  1.8000E-03 )
  displacement rms:        1.8625E-02 .  (  1.2000E-03 )
  
  predicted energy change: -1.5447E-03
  step size:     0.50046
  trust radius:  0.50000
---------------- geometry iteration  39 complete ----------------
geopt (optimize geometry) done.
ch (properties) done.
impact (MM calculations) done.
onee (1-electron integrals) done.
probe (project orbitals) done.
grid (grid generation) done.
rwr (Q operators) done.
  
       i  u  d  i  g
       t  p  i  c  r                                 RMS    maximum
       e  d  i  u  i                       energy  density   DIIS  
       r  t  s  t  d       total energy    change  change    error 
  
etot    1  N  N  1  U   -2714.46410371574           3.6E-05  2.3E-03
etot    2  N  Y  1  U   -2714.46507994647  9.8E-04  1.7E-05  9.0E-04
etot    3  N  Y  1  U   -2714.46525636409  1.8E-04  9.1E-06  2.7E-04
etot    4  N  Y  1  U   -2714.46529408612  3.8E-05  5.2E-06  1.1E-04
etot    5  N  Y  1  U   -2714.46530406943  1.0E-05  2.9E-06  5.5E-05
etot    6  N  N  1  U   -2714.46530697494  2.9E-06  0.0E+00  0.0E+00
scf (DFT) done.
der1a (1-e 1st deriv.) done.
rwr (1st deriv. Q) done.
der1b (2-e 1st deriv.) done.
  Geometry optimization step 40
  Total energy:     -2714.46530697494 hartrees
  energy change:          -1.2537E-03 .  (  5.0000E-05 )
  gradient maximum:        6.4399E-03 .  (  6.5000E-04 )
  gradient rms:            6.0199E-04 .  (  5.0000E-04 )
  displacement maximum:    1.3766E-01 .  (  1.8000E-03 )
  displacement rms:        1.8608E-02 .  (  1.2000E-03 )
  
  predicted energy change: -1.8111E-03
  step size:     0.49998
  trust radius:  0.50000
---------------- geometry iteration  40 complete ----------------
geopt (optimize geometry) done.
ch (properties) done.
impact (MM calculations) done.
onee (1-electron integrals) done.
probe (project orbitals) done.
grid (grid generation) done.
rwr (Q operators) done.
  
       i  u  d  i  g
       t  p  i  c  r                                 RMS    maximum
       e  d  i  u  i                       energy  density   DIIS  
       r  t  s  t  d       total energy    change  change    error 
  
etot    1  N  N  1  U   -2714.46617380124           3.3E-05  2.2E-03
etot    2  N  Y  1  U   -2714.46699353647  8.2E-04  1.5E-05  8.8E-04
etot    3  N  Y  1  U   -2714.46714307635  1.5E-04  8.4E-06  2.7E-04
etot    4  N  Y  1  U   -2714.46717405013  3.1E-05  4.7E-06  1.2E-04
etot    5  N  N  1  U   -2714.46718294385  8.9E-06  0.0E+00  0.0E+00
scf (DFT) done.
der1a (1-e 1st deriv.) done.
rwr (1st deriv. Q) done.
der1b (2-e 1st deriv.) done.
  Geometry optimization step 41
  Total energy:     -2714.46718294385 hartrees
  energy change:          -1.8760E-03 .  (  5.0000E-05 )
  gradient maximum:        2.6145E-03 .  (  6.5000E-04 )
  gradient rms:            3.1091E-04 *  (  5.0000E-04 )
  displacement maximum:    1.4023E-01 .  (  1.8000E-03 )
  displacement rms:        1.8612E-02 .  (  1.2000E-03 )
  
  predicted energy change: -1.5107E-03
  step size:     0.50012
  trust radius:  0.50000
---------------- geometry iteration  41 complete ----------------
geopt (optimize geometry) done.
ch (properties) done.
impact (MM calculations) done.
onee (1-electron integrals) done.
probe (project orbitals) done.
grid (grid generation) done.
rwr (Q operators) done.
  
       i  u  d  i  g
       t  p  i  c  r                                 RMS    maximum
       e  d  i  u  i                       energy  density   DIIS  
       r  t  s  t  d       total energy    change  change    error 
  
etot    1  N  N  1  U   -2714.46653961664           3.0E-05  1.7E-03
etot    2  N  Y  1  U   -2714.46715276865  6.1E-04  1.4E-05  6.5E-04
etot    3  N  Y  1  U   -2714.46726181056  1.1E-04  7.5E-06  2.1E-04
etot    4  N  Y  1  U   -2714.46728624635  2.4E-05  4.4E-06  8.1E-05
etot    5  N  N  1  U   -2714.46729308946  6.8E-06  0.0E+00  0.0E+00
scf (DFT) done.
der1a (1-e 1st deriv.) done.
rwr (1st deriv. Q) done.
der1b (2-e 1st deriv.) done.
  Geometry optimization step 42
  Total energy:     -2714.46729308946 hartrees
  energy change:          -1.1015E-04 .  (  5.0000E-05 )
  gradient maximum:        4.7098E-03 .  (  6.5000E-04 )
  gradient rms:            6.3926E-04 .  (  5.0000E-04 )
  displacement maximum:    1.4211E-01 .  (  1.8000E-03 )
  displacement rms:        1.8609E-02 .  (  1.2000E-03 )
  
  predicted energy change: -2.0143E-03
  step size:     0.50002
  trust radius:  0.50000
---------------- geometry iteration  42 complete ----------------
geopt (optimize geometry) done.
ch (properties) done.
impact (MM calculations) done.
onee (1-electron integrals) done.
probe (project orbitals) done.
grid (grid generation) done.
rwr (Q operators) done.
  
       i  u  d  i  g
       t  p  i  c  r                                 RMS    maximum
       e  d  i  u  i                       energy  density   DIIS  
       r  t  s  t  d       total energy    change  change    error 
  
etot    1  N  N  1  U   -2714.46853849361           3.1E-05  1.8E-03
etot    2  N  Y  1  U   -2714.46925945641  7.2E-04  1.5E-05  7.2E-04
etot    3  N  Y  1  U   -2714.46940458269  1.5E-04  8.3E-06  2.3E-04
etot    4  N  Y  1  U   -2714.46943660717  3.2E-05  4.8E-06  9.7E-05
etot    5  N  N  1  U   -2714.46944464600  8.0E-06  0.0E+00  0.0E+00
scf (DFT) done.
der1a (1-e 1st deriv.) done.
rwr (1st deriv. Q) done.
der1b (2-e 1st deriv.) done.
  Geometry optimization step 43
  Total energy:     -2714.46944464600 hartrees
  energy change:          -2.1516E-03 .  (  5.0000E-05 )
  gradient maximum:        3.4458E-03 .  (  6.5000E-04 )
  gradient rms:            3.8121E-04 *  (  5.0000E-04 )
  displacement maximum:    1.4372E-01 .  (  1.8000E-03 )
  displacement rms:        1.8608E-02 .  (  1.2000E-03 )
  
  predicted energy change: -2.2748E-03
  step size:     0.49999
  trust radius:  0.50000
---------------- geometry iteration  43 complete ----------------
geopt (optimize geometry) done.
ch (properties) done.
impact (MM calculations) done.
onee (1-electron integrals) done.
probe (project orbitals) done.
grid (grid generation) done.
rwr (Q operators) done.
  
       i  u  d  i  g
       t  p  i  c  r                                 RMS    maximum
       e  d  i  u  i                       energy  density   DIIS  
       r  t  s  t  d       total energy    change  change    error 
  
etot    1  N  N  1  U   -2714.46751997852           3.2E-05  1.1E-03
etot    2  N  Y  1  U   -2714.46813139465  6.1E-04  1.4E-05  4.5E-04
etot    3  N  Y  1  U   -2714.46823870094  1.1E-04  7.7E-06  2.3E-04
etot    4  N  Y  1  U   -2714.46826583298  2.7E-05  4.5E-06  1.4E-04
etot    5  N  N  1  U   -2714.46827369357  7.9E-06  0.0E+00  0.0E+00
scf (DFT) done.
der1a (1-e 1st deriv.) done.
rwr (1st deriv. Q) done.
der1b (2-e 1st deriv.) done.
  Geometry optimization step 44
  Total energy:     -2714.46827369357 hartrees
  ** restarting optimization from step   43 **
  energy change:           1.1710E-03 .  (  5.0000E-05 )
  gradient maximum:        3.4458E-03 .  (  6.5000E-04 )
  gradient rms:            3.8121E-04 *  (  5.0000E-04 )
  displacement maximum:    1.0567E-01 .  (  1.8000E-03 )
  displacement rms:        1.8608E-02 .  (  1.2000E-03 )
  
  predicted energy change: -1.4053E-03
  step size:     0.50000
  trust radius:  0.50000
---------------- geometry iteration  44 complete ----------------
geopt (optimize geometry) done.
ch (properties) done.
impact (MM calculations) done.
onee (1-electron integrals) done.
probe (project orbitals) done.
grid (grid generation) done.
rwr (Q operators) done.
  
       i  u  d  i  g
       t  p  i  c  r                                 RMS    maximum
       e  d  i  u  i                       energy  density   DIIS  
       r  t  s  t  d       total energy    change  change    error 
  
etot    1  N  N  1  U   -2714.47033543615           2.5E-05  1.3E-03
etot    2  N  Y  1  U   -2714.47075093821  4.2E-04  1.1E-05  4.1E-04
etot    3  N  Y  1  U   -2714.47083063610  8.0E-05  5.9E-06  1.7E-04
etot    4  N  Y  1  U   -2714.47084765972  1.7E-05  3.4E-06  9.2E-05
etot    5  N  N  1  U   -2714.47085280398  5.1E-06  0.0E+00  0.0E+00
scf (DFT) done.
der1a (1-e 1st deriv.) done.
rwr (1st deriv. Q) done.
der1b (2-e 1st deriv.) done.
  Geometry optimization step 45
  Total energy:     -2714.47085280398 hartrees
  energy change:          -1.4082E-03 .  (  5.0000E-05 )
  gradient maximum:        6.0143E-03 .  (  6.5000E-04 )
  gradient rms:            4.9723E-04 *  (  5.0000E-04 )
  displacement maximum:    1.4584E-01 .  (  1.8000E-03 )
  displacement rms:        1.8605E-02 .  (  1.2000E-03 )
  
  predicted energy change: -2.8030E-03
  step size:     0.49992
  trust radius:  0.50000
---------------- geometry iteration  45 complete ----------------
geopt (optimize geometry) done.
ch (properties) done.
impact (MM calculations) done.
onee (1-electron integrals) done.
probe (project orbitals) done.
grid (grid generation) done.
rwr (Q operators) done.
  
       i  u  d  i  g
       t  p  i  c  r                                 RMS    maximum
       e  d  i  u  i                       energy  density   DIIS  
       r  t  s  t  d       total energy    change  change    error 
  
etot    1  N  N  1  U   -2714.47017282562           3.5E-05  1.3E-03
etot    2  N  Y  1  U   -2714.47087650400  7.0E-04  1.5E-05  4.3E-04
etot    3  N  Y  1  U   -2714.47099200213  1.2E-04  8.1E-06  2.7E-04
etot    4  N  Y  1  U   -2714.47102187252  3.0E-05  4.8E-06  1.3E-04
etot    5  N  N  1  U   -2714.47103016704  8.3E-06  0.0E+00  0.0E+00
scf (DFT) done.
der1a (1-e 1st deriv.) done.
rwr (1st deriv. Q) done.
der1b (2-e 1st deriv.) done.
  Geometry optimization step 46
  Total energy:     -2714.47103016704 hartrees
  ** restarting optimization from step   45 **
  energy change:          -1.7736E-04 .  (  5.0000E-05 )
  gradient maximum:        6.0143E-03 .  (  6.5000E-04 )
  gradient rms:            4.9723E-04 *  (  5.0000E-04 )
  displacement maximum:    6.2481E-02 .  (  1.8000E-03 )
  displacement rms:        9.3094E-03 .  (  1.2000E-03 )
  
  predicted energy change: -1.1300E-03
  step size:     0.25015
  trust radius:  0.24996
---------------- geometry iteration  46 complete ----------------
geopt (optimize geometry) done.
ch (properties) done.
impact (MM calculations) done.
onee (1-electron integrals) done.
probe (project orbitals) done.
grid (grid generation) done.
rwr (Q operators) done.
  
       i  u  d  i  g
       t  p  i  c  r                                 RMS    maximum
       e  d  i  u  i                       energy  density   DIIS  
       r  t  s  t  d       total energy    change  change    error 
  
etot    1  N  N  1  U   -2714.47433096796           2.7E-05  1.1E-03
etot    2  N  Y  1  U   -2714.47475282013  4.2E-04  1.1E-05  3.6E-04
etot    3  N  Y  1  U   -2714.47482233948  7.0E-05  5.8E-06  1.6E-04
etot    4  N  Y  1  U   -2714.47483956661  1.7E-05  3.4E-06  7.9E-05
etot    5  N  N  1  U   -2714.47484373811  4.2E-06  0.0E+00  0.0E+00
scf (DFT) done.
der1a (1-e 1st deriv.) done.
rwr (1st deriv. Q) done.
der1b (2-e 1st deriv.) done.
  Geometry optimization step 47
  Total energy:     -2714.47484373811 hartrees
  energy change:          -3.9909E-03 .  (  5.0000E-05 )
  gradient maximum:        5.6420E-03 .  (  6.5000E-04 )
  gradient rms:            4.5435E-04 *  (  5.0000E-04 )
  displacement maximum:    5.3702E-02 .  (  1.8000E-03 )
  displacement rms:        4.6835E-03 .  (  1.2000E-03 )
  
  predicted energy change: -1.1191E-03
  step size:     0.12584
  trust radius:  0.12498
---------------- geometry iteration  47 complete ----------------
geopt (optimize geometry) done.
ch (properties) done.
impact (MM calculations) done.
onee (1-electron integrals) done.
probe (project orbitals) done.
grid (grid generation) done.
rwr (Q operators) done.
  
       i  u  d  i  g
       t  p  i  c  r                                 RMS    maximum
       e  d  i  u  i                       energy  density   DIIS  
       r  t  s  t  d       total energy    change  change    error 
  
etot    1  N  N  1  U   -2714.47510628530           9.2E-06  3.2E-04
etot    2  N  Y  1  U   -2714.47514430797  3.8E-05  3.6E-06  9.4E-05
etot    3  N  N  1  U   -2714.47515045894  6.2E-06  0.0E+00  0.0E+00
scf (DFT) done.
der1a (1-e 1st deriv.) done.
rwr (1st deriv. Q) done.
der1b (2-e 1st deriv.) done.
  Geometry optimization step 48
  Total energy:     -2714.47515045894 hartrees
  energy change:          -3.0672E-04 .  (  5.0000E-05 )
  gradient maximum:        6.6048E-03 .  (  6.5000E-04 )
  gradient rms:            4.4874E-04 *  (  5.0000E-04 )
  displacement maximum:    2.6107E-02 .  (  1.8000E-03 )
  displacement rms:        2.3276E-03 .  (  1.2000E-03 )
  
  predicted energy change: -3.9628E-04
  step size:     0.06254
  trust radius:  0.06249
---------------- geometry iteration  48 complete ----------------
geopt (optimize geometry) done.
ch (properties) done.
impact (MM calculations) done.
onee (1-electron integrals) done.
probe (project orbitals) done.
grid (grid generation) done.
rwr (Q operators) done.
  
       i  u  d  i  g
       t  p  i  c  r                                 RMS    maximum
       e  d  i  u  i                       energy  density   DIIS  
       r  t  s  t  d       total energy    change  change    error 
  
etot    1  N  N  1  U   -2714.47563840210           5.3E-06  1.5E-04
etot    2  N  Y  1  U   -2714.47565117977  1.3E-05  1.9E-06  7.1E-05
etot    3  N  N  1  U   -2714.47565316170  2.0E-06  0.0E+00  0.0E+00
scf (DFT) done.
der1a (1-e 1st deriv.) done.
rwr (1st deriv. Q) done.
der1b (2-e 1st deriv.) done.
  Geometry optimization step 49
  Total energy:     -2714.47565316170 hartrees
  energy change:          -5.0270E-04 .  (  5.0000E-05 )
  gradient maximum:        9.2672E-04 .  (  6.5000E-04 )
  gradient rms:            1.0310E-04 *  (  5.0000E-04 )
  displacement maximum:    2.3280E-02 .  (  1.8000E-03 )
  displacement rms:        3.2946E-03 .  (  1.2000E-03 )
  
  predicted energy change: -1.7412E-04
  step size:     0.08853
  trust radius:  0.08837
---------------- geometry iteration  49 complete ----------------
geopt (optimize geometry) done.
ch (properties) done.
impact (MM calculations) done.
onee (1-electron integrals) done.
probe (project orbitals) done.
grid (grid generation) done.
rwr (Q operators) done.
  
       i  u  d  i  g
       t  p  i  c  r                                 RMS    maximum
       e  d  i  u  i                       energy  density   DIIS  
       r  t  s  t  d       total energy    change  change    error 
  
etot    1  N  N  1  U   -2714.47579773647           6.8E-06  2.4E-04
etot    2  N  Y  1  U   -2714.47582602535  2.8E-05  3.0E-06  1.2E-04
etot    3  N  N  1  U   -2714.47583122939  5.2E-06  0.0E+00  0.0E+00
scf (DFT) done.
der1a (1-e 1st deriv.) done.
rwr (1st deriv. Q) done.
der1b (2-e 1st deriv.) done.
  Geometry optimization step 50
  Total energy:     -2714.47583122939 hartrees
  energy change:          -1.7807E-04 .  (  5.0000E-05 )
  gradient maximum:        4.0045E-04 *  (  6.5000E-04 )
  gradient rms:            7.0921E-05 #  (  5.0000E-04 )
  displacement maximum:    2.3609E-02 .  (  1.8000E-03 )
  displacement rms:        4.6518E-03 .  (  1.2000E-03 )
  
  predicted energy change: -1.9329E-04
  step size:     0.12499
  trust radius:  0.12498
---------------- geometry iteration  50 complete ----------------
geopt (optimize geometry) done.
ch (properties) done.
impact (MM calculations) done.
onee (1-electron integrals) done.
probe (project orbitals) done.
grid (grid generation) done.
rwr (Q operators) done.
  
       i  u  d  i  g
       t  p  i  c  r                                 RMS    maximum
       e  d  i  u  i                       energy  density   DIIS  
       r  t  s  t  d       total energy    change  change    error 
  
etot    1  N  N  1  U   -2714.47597818323           8.7E-06  3.1E-04
etot    2  N  Y  1  U   -2714.47602527988  4.7E-05  4.2E-06  1.1E-04
etot    3  N  N  1  U   -2714.47603333220  8.1E-06  0.0E+00  0.0E+00
scf (DFT) done.
der1a (1-e 1st deriv.) done.
rwr (1st deriv. Q) done.
der1b (2-e 1st deriv.) done.
  Geometry optimization step 51
  Total energy:     -2714.47603333220 hartrees
  energy change:          -2.0210E-04 .  (  5.0000E-05 )
  gradient maximum:        1.4586E-03 .  (  6.5000E-04 )
  gradient rms:            1.1689E-04 *  (  5.0000E-04 )
  displacement maximum:    2.8675E-02 .  (  1.8000E-03 )
  displacement rms:        6.5831E-03 .  (  1.2000E-03 )
  
  predicted energy change: -2.6495E-04
  step size:     0.17689
  trust radius:  0.17675
---------------- geometry iteration  51 complete ----------------
geopt (optimize geometry) done.
ch (properties) done.
impact (MM calculations) done.
onee (1-electron integrals) done.
probe (project orbitals) done.
grid (grid generation) done.
rwr (Q operators) done.
  
       i  u  d  i  g
       t  p  i  c  r                                 RMS    maximum
       e  d  i  u  i                       energy  density   DIIS  
       r  t  s  t  d       total energy    change  change    error 
  
etot    1  N  N  1  U   -2714.47623896013           1.2E-05  4.2E-04
etot    2  N  Y  1  U   -2714.47632668306  8.8E-05  5.7E-06  2.2E-04
etot    3  N  Y  1  U   -2714.47634147311  1.5E-05  3.0E-06  1.6E-04
etot    4  N  N  1  U   -2714.47634756758  6.1E-06  0.0E+00  0.0E+00
scf (DFT) done.
der1a (1-e 1st deriv.) done.
rwr (1st deriv. Q) done.
der1b (2-e 1st deriv.) done.
  Geometry optimization step 52
  Total energy:     -2714.47634756758 hartrees
  energy change:          -3.1424E-04 .  (  5.0000E-05 )
  gradient maximum:        7.8160E-04 .  (  6.5000E-04 )
  gradient rms:            1.0916E-04 *  (  5.0000E-04 )
  displacement maximum:    7.9261E-02 .  (  1.8000E-03 )
  displacement rms:        9.3031E-03 .  (  1.2000E-03 )
  
  predicted energy change: -4.1227E-04
  step size:     0.24998
  trust radius:  0.24996
---------------- geometry iteration  52 complete ----------------
geopt (optimize geometry) done.
ch (properties) done.
impact (MM calculations) done.
onee (1-electron integrals) done.
probe (project orbitals) done.
grid (grid generation) done.
rwr (Q operators) done.
  
       i  u  d  i  g
       t  p  i  c  r                                 RMS    maximum
       e  d  i  u  i                       energy  density   DIIS  
       r  t  s  t  d       total energy    change  change    error 
  
etot    1  N  N  1  U   -2714.47650532522           1.5E-05  5.4E-04
etot    2  N  Y  1  U   -2714.47666881130  1.6E-04  7.0E-06  3.0E-04
etot    3  N  Y  1  U   -2714.47669810769  2.9E-05  3.7E-06  1.6E-04
etot    4  N  N  1  U   -2714.47670536215  7.3E-06  0.0E+00  0.0E+00
scf (DFT) done.
der1a (1-e 1st deriv.) done.
rwr (1st deriv. Q) done.
der1b (2-e 1st deriv.) done.
  Geometry optimization step 53
  Total energy:     -2714.47670536215 hartrees
  energy change:          -3.5779E-04 .  (  5.0000E-05 )
  gradient maximum:        2.6397E-03 .  (  6.5000E-04 )
  gradient rms:            2.3653E-04 *  (  5.0000E-04 )
  displacement maximum:    7.1713E-02 .  (  1.8000E-03 )
  displacement rms:        1.3158E-02 .  (  1.2000E-03 )
  
  predicted energy change: -5.9325E-04
  step size:     0.35357
  trust radius:  0.35350
---------------- geometry iteration  53 complete ----------------
geopt (optimize geometry) done.
ch (properties) done.
impact (MM calculations) done.
onee (1-electron integrals) done.
probe (project orbitals) done.
grid (grid generation) done.
rwr (Q operators) done.
  
       i  u  d  i  g
       t  p  i  c  r                                 RMS    maximum
       e  d  i  u  i                       energy  density   DIIS  
       r  t  s  t  d       total energy    change  change    error 
  
etot    1  N  N  1  U   -2714.47697233278           2.1E-05  7.6E-04
etot    2  N  Y  1  U   -2714.47725926101  2.9E-04  9.3E-06  2.9E-04
etot    3  N  Y  1  U   -2714.47731102972  5.2E-05  5.1E-06  1.4E-04
etot    4  N  Y  1  U   -2714.47732200254  1.1E-05  2.9E-06  9.1E-05
etot    5  N  N  1  U   -2714.47732538505  3.4E-06  0.0E+00  0.0E+00
scf (DFT) done.
der1a (1-e 1st deriv.) done.
[...]
impact (MM calculations) done.
onee (1-electron integrals) done.
probe (project orbitals) done.
grid (grid generation) done.
rwr (Q operators) done.
  
       i  u  d  i  g
       t  p  i  c  r                                 RMS    maximum
       e  d  i  u  i                       energy  density   DIIS  
       r  t  s  t  d       total energy    change  change    error 
  
etot    1  N  N  1  U   -2714.53741705450           3.3E-05  1.8E-03
etot    2  N  Y  1  U   -2714.53820171246  7.8E-04  1.4E-05  6.3E-04
etot    3  N  Y  1  U   -2714.53832713044  1.3E-04  7.2E-06  3.1E-04
etot    4  N  Y  1  U   -2714.53836076029  3.4E-05  4.0E-06  2.0E-04
etot    5  N  N  1  U   -2714.53836876966  8.0E-06  0.0E+00  0.0E+00
scf (DFT) done.
der1a (1-e 1st deriv.) done.
rwr (1st deriv. Q) done.
der1b (2-e 1st deriv.) done.
  Geometry optimization step 38
  Total energy:     -2714.53836876966 hartrees
  ** restarting optimization from step   37 **
  energy change:           5.3964E-04 .  (  5.0000E-05 )
  gradient maximum:        3.7475E-03 .  (  6.5000E-04 )
  gradient rms:            2.7514E-04 *  (  5.0000E-04 )
  displacement maximum:    5.8608E-02 .  (  1.8000E-03 )
  displacement rms:        6.5777E-03 .  (  1.2000E-03 )
  
  predicted energy change: -3.5808E-04
  step size:     0.17674
  trust radius:  0.17671
---------------- geometry iteration  38 complete ----------------
geopt (optimize geometry) done.
ch (properties) done.
impact (MM calculations) done.
onee (1-electron integrals) done.
probe (project orbitals) done.
grid (grid generation) done.
rwr (Q operators) done.
  
       i  u  d  i  g
       t  p  i  c  r                                 RMS    maximum
       e  d  i  u  i                       energy  density   DIIS  
       r  t  s  t  d       total energy    change  change    error 
  
etot    1  N  N  1  U   -2714.53896278101           2.1E-05  1.0E-03
etot    2  N  Y  1  U   -2714.53928271015  3.2E-04  8.4E-06  3.2E-04
etot    3  N  Y  1  U   -2714.53933188798  4.9E-05  4.3E-06  1.8E-04
etot    4  N  Y  1  U   -2714.53934361408  1.2E-05  2.4E-06  1.0E-04
etot    5  N  N  1  U   -2714.53934637201  2.8E-06  0.0E+00  0.0E+00
scf (DFT) done.
der1a (1-e 1st deriv.) done.
rwr (1st deriv. Q) done.
der1b (2-e 1st deriv.) done.
  Geometry optimization step 39
  Total energy:     -2714.53934637201 hartrees
  energy change:          -4.3797E-04 .  (  5.0000E-05 )
  gradient maximum:        1.6073E-03 .  (  6.5000E-04 )
  gradient rms:            1.1379E-04 *  (  5.0000E-04 )
  displacement maximum:    7.1712E-02 .  (  1.8000E-03 )
  displacement rms:        9.3234E-03 .  (  1.2000E-03 )
  
  predicted energy change: -2.6192E-04
  step size:     0.25052
  trust radius:  0.24991
---------------- geometry iteration  39 complete ----------------
geopt (optimize geometry) done.
ch (properties) done.
impact (MM calculations) done.
onee (1-electron integrals) done.
probe (project orbitals) done.
grid (grid generation) done.
rwr (Q operators) done.
  
       i  u  d  i  g
       t  p  i  c  r                                 RMS    maximum
       e  d  i  u  i                       energy  density   DIIS  
       r  t  s  t  d       total energy    change  change    error 
  
etot    1  N  N  1  U   -2714.53909965552           2.1E-05  8.9E-04
etot    2  N  Y  1  U   -2714.53940225589  3.0E-04  8.8E-06  4.3E-04
etot    3  N  Y  1  U   -2714.53945401896  5.2E-05  4.5E-06  2.4E-04
etot    4  N  Y  1  U   -2714.53946619871  1.2E-05  2.5E-06  1.4E-04
etot    5  N  N  1  U   -2714.53946967325  3.5E-06  0.0E+00  0.0E+00
scf (DFT) done.
der1a (1-e 1st deriv.) done.
rwr (1st deriv. Q) done.
der1b (2-e 1st deriv.) done.
  Geometry optimization step 40
  Total energy:     -2714.53946967325 hartrees
  energy change:          -1.2330E-04 .  (  5.0000E-05 )
  gradient maximum:        2.0676E-03 .  (  6.5000E-04 )
  gradient rms:            2.6880E-04 *  (  5.0000E-04 )
  displacement maximum:    3.0642E-02 .  (  1.8000E-03 )
  displacement rms:        4.6665E-03 .  (  1.2000E-03 )
  
  predicted energy change: -2.0892E-04
  step size:     0.12539
  trust radius:  0.12496
---------------- geometry iteration  40 complete ----------------
geopt (optimize geometry) done.
ch (properties) done.
impact (MM calculations) done.
onee (1-electron integrals) done.
probe (project orbitals) done.
grid (grid generation) done.
rwr (Q operators) done.
  
       i  u  d  i  g
       t  p  i  c  r                                 RMS    maximum
       e  d  i  u  i                       energy  density   DIIS  
       r  t  s  t  d       total energy    change  change    error 
  
etot    1  N  N  1  U   -2714.53966236775           1.1E-05  5.4E-04
etot    2  N  Y  1  U   -2714.53974799258  8.6E-05  4.8E-06  3.1E-04
etot    3  N  Y  1  U   -2714.53976352382  1.6E-05  2.4E-06  1.9E-04
etot    4  N  N  1  U   -2714.53976726652  3.7E-06  0.0E+00  0.0E+00
scf (DFT) done.
der1a (1-e 1st deriv.) done.
rwr (1st deriv. Q) done.
der1b (2-e 1st deriv.) done.
  Geometry optimization step 41
  Total energy:     -2714.53976726652 hartrees
  energy change:          -2.9759E-04 .  (  5.0000E-05 )
  gradient maximum:        7.3236E-04 .  (  6.5000E-04 )
  gradient rms:            7.3380E-05 #  (  5.0000E-04 )
  displacement maximum:    4.9133E-02 .  (  1.8000E-03 )
  displacement rms:        6.5788E-03 .  (  1.2000E-03 )
  
  predicted energy change: -9.6187E-05
  step size:     0.17677
  trust radius:  0.17671
---------------- geometry iteration  41 complete ----------------
geopt (optimize geometry) done.
ch (properties) done.
impact (MM calculations) done.
onee (1-electron integrals) done.
probe (project orbitals) done.
grid (grid generation) done.
rwr (Q operators) done.
  
       i  u  d  i  g
       t  p  i  c  r                                 RMS    maximum
       e  d  i  u  i                       energy  density   DIIS  
       r  t  s  t  d       total energy    change  change    error 
  
etot    1  N  N  1  U   -2714.53990220017           9.6E-06  2.4E-04
etot    2  N  Y  1  U   -2714.53995415965  5.2E-05  4.0E-06  1.4E-04
etot    3  N  N  1  U   -2714.53996330028  9.1E-06  0.0E+00  0.0E+00
scf (DFT) done.
der1a (1-e 1st deriv.) done.
rwr (1st deriv. Q) done.
der1b (2-e 1st deriv.) done.
  Geometry optimization step 42
  Total energy:     -2714.53996330028 hartrees
  energy change:          -1.9603E-04 .  (  5.0000E-05 )
  gradient maximum:        8.6310E-04 .  (  6.5000E-04 )
  gradient rms:            1.0499E-04 *  (  5.0000E-04 )
  displacement maximum:    2.4733E-02 .  (  1.8000E-03 )
  displacement rms:        3.2940E-03 .  (  1.2000E-03 )
  
  predicted energy change: -6.4947E-05
  step size:     0.08851
  trust radius:  0.08836
---------------- geometry iteration  42 complete ----------------
geopt (optimize geometry) done.
ch (properties) done.
impact (MM calculations) done.
onee (1-electron integrals) done.
probe (project orbitals) done.
grid (grid generation) done.
rwr (Q operators) done.
  
       i  u  d  i  g
       t  p  i  c  r                                 RMS    maximum
       e  d  i  u  i                       energy  density   DIIS  
       r  t  s  t  d       total energy    change  change    error 
  
etot    1  N  N  1  U   -2714.54001555421           1.1E-05  5.8E-04
etot    2  N  Y  1  U   -2714.54008496689  6.9E-05  4.3E-06  3.4E-04
etot    3  N  Y  1  U   -2714.54009752983  1.3E-05  2.2E-06  2.0E-04
etot    4  N  N  1  U   -2714.54010081952  3.3E-06  0.0E+00  0.0E+00
scf (DFT) done.
der1a (1-e 1st deriv.) done.
rwr (1st deriv. Q) done.
der1b (2-e 1st deriv.) done.
  Geometry optimization step 43
  Total energy:     -2714.54010081952 hartrees
  energy change:          -1.3752E-04 .  (  5.0000E-05 )
  gradient maximum:        4.8074E-04 *  (  6.5000E-04 )
  gradient rms:            5.8786E-05 #  (  5.0000E-04 )
  displacement maximum:    3.7343E-02 .  (  1.8000E-03 )
  displacement rms:        4.6507E-03 .  (  1.2000E-03 )
  
  predicted energy change: -7.1047E-05
  step size:     0.12496
  trust radius:  0.12496
---------------- geometry iteration  43 complete ----------------
geopt (optimize geometry) done.
ch (properties) done.
impact (MM calculations) done.
onee (1-electron integrals) done.
probe (project orbitals) done.
grid (grid generation) done.
rwr (Q operators) done.
  
       i  u  d  i  g
       t  p  i  c  r                                 RMS    maximum
       e  d  i  u  i                       energy  density   DIIS  
       r  t  s  t  d       total energy    change  change    error 
  
etot    1  N  N  1  U   -2714.54010056992           1.2E-05  5.0E-04
etot    2  N  Y  1  U   -2714.54019652396  9.6E-05  5.1E-06  2.4E-04
etot    3  N  Y  1  U   -2714.54021352184  1.7E-05  2.6E-06  1.4E-04
etot    4  N  N  1  U   -2714.54021793465  4.4E-06  0.0E+00  0.0E+00
scf (DFT) done.
der1a (1-e 1st deriv.) done.
rwr (1st deriv. Q) done.
der1b (2-e 1st deriv.) done.
  Geometry optimization step 44
  Total energy:     -2714.54021793465 hartrees
  energy change:          -1.1712E-04 .  (  5.0000E-05 )
  gradient maximum:        8.0964E-04 .  (  6.5000E-04 )
  gradient rms:            9.0194E-05 #  (  5.0000E-04 )
  displacement maximum:    2.0123E-02 .  (  1.8000E-03 )
  displacement rms:        2.3452E-03 .  (  1.2000E-03 )
  
  predicted energy change: -4.3012E-05
  step size:     0.06302
  trust radius:  0.06248
---------------- geometry iteration  44 complete ----------------
geopt (optimize geometry) done.
ch (properties) done.
impact (MM calculations) done.
onee (1-electron integrals) done.
probe (project orbitals) done.
grid (grid generation) done.
rwr (Q operators) done.
  
       i  u  d  i  g
       t  p  i  c  r                                 RMS    maximum
       e  d  i  u  i                       energy  density   DIIS  
       r  t  s  t  d       total energy    change  change    error 
  
etot    1  N  N  1  U   -2714.54023545127           7.0E-06  3.6E-04
etot    2  N  Y  1  U   -2714.54026663033  3.1E-05  2.9E-06  2.1E-04
etot    3  N  N  1  U   -2714.54027213426  5.5E-06  0.0E+00  0.0E+00
scf (DFT) done.
der1a (1-e 1st deriv.) done.
rwr (1st deriv. Q) done.
der1b (2-e 1st deriv.) done.
  Geometry optimization step 45
  Total energy:     -2714.54027213426 hartrees
  energy change:          -5.4200E-05 .  (  5.0000E-05 )
  gradient maximum:        5.4022E-04 *  (  6.5000E-04 )
  gradient rms:            5.4270E-05 #  (  5.0000E-04 )
  displacement maximum:    1.6115E-02 .  (  1.8000E-03 )
  displacement rms:        2.3463E-03 .  (  1.2000E-03 )
  
  predicted energy change: -3.4876E-05
  step size:     0.06305
  trust radius:  0.06248
---------------- geometry iteration  45 complete ----------------
geopt (optimize geometry) done.
ch (properties) done.
impact (MM calculations) done.
onee (1-electron integrals) done.
probe (project orbitals) done.
grid (grid generation) done.
rwr (Q operators) done.
  
       i  u  d  i  g
       t  p  i  c  r                                 RMS    maximum
       e  d  i  u  i                       energy  density   DIIS  
       r  t  s  t  d       total energy    change  change    error 
  
etot    1  N  N  1  U   -2714.54028964382           6.7E-06  3.0E-04
etot    2  N  Y  1  U   -2714.54031905862  2.9E-05  3.0E-06  1.4E-04
etot    3  N  N  1  U   -2714.54032364667  4.6E-06  0.0E+00  0.0E+00
scf (DFT) done.
der1a (1-e 1st deriv.) done.
rwr (1st deriv. Q) done.
der1b (2-e 1st deriv.) done.
  Geometry optimization step 46
  Total energy:     -2714.54032364667 hartrees
  energy change:          -5.1512E-05 .  (  5.0000E-05 )
  gradient maximum:        6.3334E-04 *  (  6.5000E-04 )
  gradient rms:            8.7110E-05 #  (  5.0000E-04 )
  displacement maximum:    8.3059E-03 .  (  1.8000E-03 )
  displacement rms:        1.1820E-03 *  (  1.2000E-03 )
  
  predicted energy change: -3.0879E-05
  step size:     0.03176
  trust radius:  0.03124
---------------- geometry iteration  46 complete ----------------
geopt (optimize geometry) done.
ch (properties) done.
impact (MM calculations) done.
onee (1-electron integrals) done.
probe (project orbitals) done.
grid (grid generation) done.
rwr (Q operators) done.
  
       i  u  d  i  g
       t  p  i  c  r                                 RMS    maximum
       e  d  i  u  i                       energy  density   DIIS  
       r  t  s  t  d       total energy    change  change    error 
  
etot    1  N  N  1  U   -2714.54037883775           4.9E-06  1.9E-04
etot    2  N  Y  1  U   -2714.54038896021  1.0E-05  1.9E-06  1.1E-04
etot    3  N  N  1  U   -2714.54039050255  1.5E-06  0.0E+00  0.0E+00
scf (DFT) done.
der1a (1-e 1st deriv.) done.
rwr (1st deriv. Q) done.
der1b (2-e 1st deriv.) done.
  Geometry optimization step 47
  Total energy:     -2714.54039050255 hartrees
  energy change:          -6.6856E-05 .  (  5.0000E-05 )
  gradient maximum:        3.1992E-04 *  (  6.5000E-04 )
  gradient rms:            3.6309E-05 #  (  5.0000E-04 )
  displacement maximum:    1.3721E-02 .  (  1.8000E-03 )
  displacement rms:        1.6453E-03 .  (  1.2000E-03 )
  
  predicted energy change: -2.0871E-05
  step size:     0.04421
  trust radius:  0.04418
---------------- geometry iteration  47 complete ----------------
geopt (optimize geometry) done.
ch (properties) done.
impact (MM calculations) done.
onee (1-electron integrals) done.
probe (project orbitals) done.
grid (grid generation) done.
rwr (Q operators) done.
  
       i  u  d  i  g
       t  p  i  c  r                                 RMS    maximum
       e  d  i  u  i                       energy  density   DIIS  
       r  t  s  t  d       total energy    change  change    error 
  
etot    1  N  N  1  U   -2714.54042744222           6.0E-06  3.0E-04
etot    2  N  Y  1  U   -2714.54045356425  2.6E-05  2.7E-06  1.7E-04
etot    3  N  N  1  U   -2714.54045810117  4.5E-06  0.0E+00  0.0E+00
scf (DFT) done.
der1a (1-e 1st deriv.) done.
rwr (1st deriv. Q) done.
der1b (2-e 1st deriv.) done.
  Geometry optimization step 48
  Total energy:     -2714.54045810117 hartrees
  energy change:          -6.7599E-05 .  (  5.0000E-05 )
  gradient maximum:        4.8485E-04 *  (  6.5000E-04 )
  gradient rms:            5.5830E-05 #  (  5.0000E-04 )
  displacement maximum:    7.2935E-03 .  (  1.8000E-03 )
  displacement rms:        8.2400E-04 *  (  1.2000E-03 )
  
  predicted energy change: -1.3052E-05
  step size:     0.02214
  trust radius:  0.02209
---------------- geometry iteration  48 complete ----------------
geopt (optimize geometry) done.
ch (properties) done.
impact (MM calculations) done.
onee (1-electron integrals) done.
probe (project orbitals) done.
grid (grid generation) done.
rwr (Q operators) done.
  
       i  u  d  i  g
       t  p  i  c  r                                 RMS    maximum
       e  d  i  u  i                       energy  density   DIIS  
       r  t  s  t  d       total energy    change  change    error 
  
etot    1  N  N  1  U   -2714.54047571113           2.7E-06  9.5E-05
etot    2  N  N  1  U   -2714.54047840377  2.7E-06  0.0E+00  0.0E+00
scf (DFT) done.
der1a (1-e 1st deriv.) done.
rwr (1st deriv. Q) done.
der1b (2-e 1st deriv.) done.
  Geometry optimization step 49
  Total energy:     -2714.54047840377 hartrees
  energy change:          -2.0303E-05 *  (  5.0000E-05 )
  gradient maximum:        5.3895E-04 *  (  6.5000E-04 )
  gradient rms:            4.5644E-05 #  (  5.0000E-04 )
  displacement maximum:    7.8398E-03 .  (  1.8000E-03 )
  displacement rms:        1.1692E-03 *  (  1.2000E-03 )
  
  predicted energy change: -1.1423E-05
  step size:     0.03142
  trust radius:  0.03124
------------- final geometry iteration  49 complete -------------
geopt (optimize geometry) done.
ch (properties) done.
impact (MM calculations) done.
  scan:   r = 3.345   energy =    -2714.540478
============= geometry scan iteration   2 complete ==============
  
Molecular Point Group: C1      
Point Group used: C1 (symmetry turned off)
scanner (geometry scan) done.
impact (MM calculations) done.
onee (1-electron integrals) done.
probe (project orbitals) done.
grid (grid generation) done.
rwr (Q operators) done.
scf type: DFT=Becke_3_Parameter/HF+Slater+Becke88+VWN+LYP (B3LYP)
  
       i  u  d  i  g
       t  p  i  c  r                                 RMS    maximum
       e  d  i  u  i                       energy  density   DIIS  
       r  t  s  t  d       total energy    change  change    error 
  
etot    1  N  N  1  U   -2733.18823227893           3.6E-02  1.9E-01
etot    2  N  Y  1  U   -2712.90460708742 -2.0E+01  1.1E-02  2.6E+00
etot    3  N  Y  1  U   -2707.65185131566 -5.3E+00  3.0E-03  3.2E+00
etot    4  N  Y  1  U   -2704.97805758087 -2.7E+00  2.6E-03  3.1E+00
etot    5  N  Y  1  U   -2701.34941280103 -3.6E+00  2.4E-03  3.6E+00
etot    6  N  Y  1  U   -2698.41971008426 -2.9E+00  1.4E-03  3.9E+00
etot    7  N  Y  1  U   -2696.89405674088 -1.5E+00  8.2E-04  4.0E+00
etot    8  N  Y  1  U   -2696.03426145485 -8.6E-01  1.2E-03  4.0E+00
etot    9  N  Y  1  U   -2696.70695994573  6.7E-01  2.8E-03  4.0E+00
etot   10  N  Y  1  U   -2699.32034984976  2.6E+00  1.3E-03  3.9E+00
etot   11  N  Y  1  U   -2700.54135997450  1.2E+00  4.1E-02  3.8E+00
etot   12  N  Y  1  U   -2719.42879967498  1.9E+01  1.2E-03  1.7E+00
etot   13  N  Y  1  U   -2716.83167298842 -2.6E+00  6.0E-04  1.9E+00
etot   14  N  Y  1  U   -2716.36209162653 -4.7E-01  6.5E-04  2.0E+00
etot   15  N  Y  1  U   -2717.03921220899  6.8E-01  1.9E+00  2.1E+00
 No-fail mode: ** Warning: Aggressive NOFAIL Action Taken nops=  1
 ERROR 1191: fatal error
  There's no &zmat section in input file!
  Skipping to next scan point.
impact (MM calculations) done.
 ERROR 1510: fatal error
   diagonalization failed in diablk            2
  Skipping to next scan point.
 ERROR 87: fatal error
   Odd number of electrons in closed-shell orbitals
 
    Total number of electrons:  371
    Number of closed-shell electrons:  371
    Number of open-shell electrons:    0
    Number of GVB pair electrons:    0
 
    Multiplicity:    1
    Molecular charge:    0
 
  Please check the input file for incorrect spin multiplicity
  (multip), incorrect molecular charge (molchg), or missing
  atoms in the geometry.
  Skipping to next scan point.
forrtl: severe (174): SIGSEGV, segmentation fault occurred
Image              PC                Routine            Line        Source             
libirc.so          00002B6A9799E9B5  Unknown               Unknown  Unknown
libirc.so          00002B6A9799C777  Unknown               Unknown  Unknown
libifcore.so.5     00002B6A974D7872  Unknown               Unknown  Unknown
libifcore.so.5     00002B6A974D76C6  Unknown               Unknown  Unknown
libifcore.so.5     00002B6A97430795  Unknown               Unknown  Unknown
libifcore.so.5     00002B6A974425DD  Unknown               Unknown  Unknown
libpthread.so.0    00002B6A98E02870  Unknown               Unknown  Unknown
libifcore.so.5     00002B6A9749B6C3  Unknown               Unknown  Unknown
libifcore.so.5     00002B6A974986F2  Unknown               Unknown  Unknown
hfig               0000000000A122A6  Unknown               Unknown  Unknown
hfig               0000000000A7A77E  Unknown               Unknown  Unknown
hfig               0000000000A7A116  Unknown               Unknown  Unknown
hfig               00000000004D3C39  Unknown               Unknown  Unknown
hfig               0000000000474433  Unknown               Unknown  Unknown
hfig               0000000000473D31  Unknown               Unknown  Unknown
hfig               00000000004476CE  Unknown               Unknown  Unknown
libc.so.6          00002B6A9944AB25  Unknown               Unknown  Unknown
hfig               00000000004475A9  Unknown               Unknown  Unknown
Error: jaguar died in program hfig

Job qsite_8 halted prematurely on bsccls308 at Sat Mar 10 20:31:35 2018
Timer (jaguar_backend.py) : 192663.69 secs (2 days, 5 hrs, 31 mins, 03 secs)
Finished:   Sat Mar 10 20:31:35 2018
